 Gaussian 16, Revision C.01,
 Gaussian 16:  ES64L-G16RevC.01  3-Jul-2019

 --------------------------------------
 #N CCSD/def2SVP FREQ Geom=Connectivity
 --------------------------------------

 ---------------
 GS_inverse_freq
 ---------------
 Symbolic Z-matrix:
 Charge =  0 Multiplicity = 1

                         Standard orientation:
 ---------------------------------------------------------------------
 Center     Atomic      Atomic             Coordinates (Angstroms)
 Number     Number       Type             X           Y           Z
 ---------------------------------------------------------------------
      1         15           0        0.581766    0.595210   -0.111569
      2          9           0        1.466702   -0.753652    0.027694
      3          1           0        0.652665    0.961690    1.261958
      4         17           0       -1.328204   -0.182763    0.009549
 ---------------------------------------------------------------------

 SCF Done:  E(RHF) =  -899.950973435     A.U. after   12 cycles
 E2 =    -0.4316673639D+00 EUMP2 =    -0.90038264079907D+03
 SCF Done:  E(RHF) =  -899.950986615     A.U. after    8 cycles
 E2 =    -0.4316483837D+00 EUMP2 =    -0.90038263499876D+03
 SCF Done:  E(RHF) =  -899.950959325     A.U. after    8 cycles
 E2 =    -0.4316863752D+00 EUMP2 =    -0.90038264569997D+03
 SCF Done:  E(RHF) =  -899.950949513     A.U. after    8 cycles
 E2 =    -0.4316879653D+00 EUMP2 =    -0.90038263747795D+03
 SCF Done:  E(RHF) =  -899.950996190     A.U. after    8 cycles
 E2 =    -0.4316467720D+00 EUMP2 =    -0.90038264296230D+03
 SCF Done:  E(RHF) =  -899.950989072     A.U. after    8 cycles
 E2 =    -0.4316548559D+00 EUMP2 =    -0.90038264392752D+03
 SCF Done:  E(RHF) =  -899.950956732     A.U. after    8 cycles
 E2 =    -0.4316799235D+00 EUMP2 =    -0.90038263665566D+03
 SCF Done:  E(RHF) =  -899.950954259     A.U. after    7 cycles
 E2 =    -0.4316875753D+00 EUMP2 =    -0.90038264183442D+03
 SCF Done:  E(RHF) =  -899.950992160     A.U. after    7 cycles
 E2 =    -0.4316471656D+00 EUMP2 =    -0.90038263932537D+03
 SCF Done:  E(RHF) =  -899.950998606     A.U. after    8 cycles
 E2 =    -0.4316418002D+00 EUMP2 =    -0.90038264040581D+03
 E2 =    -0.4316929181D+00 EUMP2 =    -0.90038264033090D+03
 E2 =    -0.4316696309D+00 EUMP2 =    -0.90038264016078D+03
 E2 =    -0.4316651256D+00 EUMP2 =    -0.90038264134011D+03
 E2 =    -0.4316662515D+00 EUMP2 =    -0.90038264027775D+03
 E2 =    -0.4316684984D+00 EUMP2 =    -0.90038264120440D+03
 SCF Done:  E(RHF) =  -899.950970936     A.U. after    7 cycles
 E2 =    -0.4316696428D+00 EUMP2 =    -0.90038264057855D+03
 SCF Done:  E(RHF) =  -899.950975756     A.U. after    7 cycles
 E2 =    -0.4316651039D+00 EUMP2 =    -0.90038264085992D+03
 SCF Done:  E(RHF) =  -899.950960883     A.U. after    7 cycles
 E2 =    -0.4316769187D+00 EUMP2 =    -0.90038263780131D+03
 SCF Done:  E(RHF) =  -899.950985225     A.U. after    7 cycles
 E2 =    -0.4316578294D+00 EUMP2 =    -0.90038264305426D+03
 SCF Done:  E(RHF) =  -899.950977790     A.U. after    8 cycles
 E2 =    -0.4316672895D+00 EUMP2 =    -0.90038264507935D+03
 SCF Done:  E(RHF) =  -899.950968500     A.U. after    8 cycles
 E2 =    -0.4316674597D+00 EUMP2 =    -0.90038263595937D+03
 SCF Done:  E(RHF) =  -899.950973513     A.U. after    7 cycles
 E2 =    -0.4316700612D+00 EUMP2 =    -0.90038264357439D+03
 SCF Done:  E(RHF) =  -899.950973208     A.U. after    7 cycles
 E2 =    -0.4316646773D+00 EUMP2 =    -0.90038263788530D+03
 SCF Done:  E(RHF) =  -899.950972250     A.U. after    7 cycles
 E2 =    -0.4316681054D+00 EUMP2 =    -0.90038264035519D+03
 SCF Done:  E(RHF) =  -899.950974562     A.U. after    7 cycles
 E2 =    -0.4316666288D+00 EUMP2 =    -0.90038264119118D+03

 Alpha  occ. eigenvalues -- -104.80338 -80.04314 -26.30400 -10.56773  -8.04244
 Alpha  occ. eigenvalues --   -8.03925  -8.03896  -7.60302  -5.50143  -5.50012
 Alpha  occ. eigenvalues --   -5.49777  -1.58913  -1.12099  -0.85926  -0.70802
 Alpha  occ. eigenvalues --   -0.69269  -0.66929  -0.55324  -0.49575  -0.47879
 Alpha  occ. eigenvalues --   -0.40280
 Alpha virt. eigenvalues --    0.11886   0.13004   0.19367   0.43041   0.49914
 Alpha virt. eigenvalues --    0.63184   0.66445   0.68568   0.71385   0.74077
 Alpha virt. eigenvalues --    0.79542   0.81920   0.92054   1.01937   1.02800

 Mulliken charges:
               1
     1  P    0.709721
     2  F   -0.407147
     3  H   -0.036022
     4  Cl  -0.266551
 Sum of Mulliken charges =  -0.00000

 Dipole moment (field-independent basis, Debye):
    X=              0.3474    Y=              1.5743    Z=              0.4377  Tot=              1.6706
 Quadrupole moment (field-independent basis, Debye-Ang):
   XX=            -32.2427   YY=            -30.6213   ZZ=            -30.5764
   XY=              1.6208   XZ=              0.3968   YZ=              1.1426

                      1                      2                      3
                      A                      A                      A
 Frequencies --    270.6553               536.9812               861.0108
 Red. masses --     19.3182                26.2823                17.8294
 Frc consts  --      0.8338                 4.4651                 7.7876
 IR Inten    --      4.3825                90.6314               136.1937

                      4                      5                      6
                      A                      A                      A
 Frequencies --    918.5075              1004.7820              2426.3838
 Red. masses --      1.0818                 1.1039                 1.0408
 Frc consts  --      0.5377                 0.6566                 3.6102
 IR Inten    --     24.8500                26.6399               115.6142

 - Thermochemistry -
 -------------------
 Temperature   298.150 Kelvin.  Pressure   1.00000 Atm.
 Atom     1 has atomic number 15 and mass  30.97376

 Molecular mass:    85.94884 amu.
 Principal axes and moments of inertia in atomic units:
                           1         2         3
     Eigenvalues --    92.17404 412.08100 490.67102
           X            0.99989   0.01227   0.00823
           Y           -0.01275   0.99811   0.06009
           Z           -0.00748  -0.06019   0.99816
 This molecule is an asymmetric top.
 Rotational symmetry number  1.
 Rotational temperatures (Kelvin)      0.93968     0.21019     0.17652
 Rotational constants (GHZ):          19.57971     4.37958     3.67811
 Zero-point vibrational energy      35997.6 (Joules/Mol)
                                    8.60362 (Kcal/Mol)
 Warning -- explicit consideration of   2 degrees of freedom as
           vibrations may cause significant error
 Vibrational temperatures:    389.41   772.60  1238.80  1321.53  1445.66
          (Kelvin)           3491.03

 Zero-point correction=                           0.013711 (Hartree/Particle)
 Thermal correction to Energy=                    0.017349
 Thermal correction to Enthalpy=                  0.018293
 Thermal correction to Gibbs Free Energy=        -0.013185
 Sum of electronic and zero-point Energies=           -900.398535
 Sum of electronic and thermal Energies=              -900.394897
 Sum of electronic and thermal Enthalpies=            -900.393953
 Sum of electronic and thermal Free Energies=         -900.425431

                     E (Thermal)             CV                S
                      KCal/Mol        Cal/Mol-Kelvin    Cal/Mol-Kelvin
 Total                   10.886             10.262             66.252
 Electronic               0.000              0.000              0.000
 Translational            0.889              2.981             39.267
 Rotational               0.889              2.981             24.436
 Vibrational              9.109              4.300              2.549
 Vibration     1          0.674              1.727              1.592
 Vibration     2          0.892              1.168              0.572

 Optimization completed.
    -- Stationary point found.
 Normal termination of Gaussian 16 at Fri Jan 26 20:47:44 2024.
