 Gaussian 16, Revision C.01,
 Gaussian 16:  ES64L-G16RevC.01  3-Jul-2019

 ------------------------------------
 #N CCSD/def2SVP SP Geom=Connectivity
 ------------------------------------

 -------------
 GS_inverse_SP
 -------------
 Symbolic Z-matrix:
 Charge =  0 Multiplicity = 1

                         Standard orientation:
 ---------------------------------------------------------------------
 Center     Atomic      Atomic             Coordinates (Angstroms)
 Number     Number       Type             X           Y           Z
 ---------------------------------------------------------------------
      1         15           0        0.581766    0.595210   -0.111569
      2          9           0        1.466702   -0.753652    0.027694
      3          1           0        0.652665    0.961690    1.261958
      4         17           0       -1.328204   -0.182763    0.009549
 ---------------------------------------------------------------------

 SCF Done:  E(RHF) =  -899.950973435     A.U. after   12 cycles
 E2 =    -0.4316673639D+00 EUMP2 =    -0.90038264079907D+03

 The electronic state is 1-A.
 Alpha  occ. eigenvalues -- -104.80336 -80.04315 -26.30401 -10.56771  -8.04241
 Alpha  occ. eigenvalues --   -8.03923  -8.03893  -7.60303  -5.50144  -5.50013
 Alpha  occ. eigenvalues --   -5.49778  -1.58913  -1.12096  -0.85927  -0.70802
 Alpha  occ. eigenvalues --   -0.69270  -0.66929  -0.55321  -0.49573  -0.47877
 Alpha  occ. eigenvalues --   -0.40282
 Alpha virt. eigenvalues --    0.11885   0.13001   0.19368   0.43043   0.49918
 Alpha virt. eigenvalues --    0.63187   0.66441   0.68569   0.71384   0.74076
 Alpha virt. eigenvalues --    0.79539   0.81918   0.92054   1.01940   1.02802

 Mulliken charges:
               1
     1  P    0.816045
     2  F   -0.472606
     3  H   -0.027900
     4  Cl  -0.315540
 Sum of Mulliken charges =  -0.00000

 Dipole moment (field-independent basis, Debye):
    X=              0.4245    Y=              1.8547    Z=              0.5404  Tot=              1.9779
 Quadrupole moment (field-independent basis, Debye-Ang):
   XX=            -32.6904   YY=            -30.7271   ZZ=            -30.5525
   XY=              1.8747   XZ=              0.4970   YZ=              1.3704

 Normal termination of Gaussian 16 at Fri Jan 26 20:42:13 2024.
