 Gaussian 16, Revision C.01,
 Gaussian 16:  ES64L-G16RevC.01  3-Jul-2019

 --------------------------------------
 #N CCSD/def2SVP FREQ Geom=Connectivity
 --------------------------------------

 -------
 TS_freq
 -------
 Symbolic Z-matrix:
 Charge =  0 Multiplicity = 1

                         Standard orientation:
 ---------------------------------------------------------------------
 Center     Atomic      Atomic             Coordinates (Angstroms)
 Number     Number       Type             X           Y           Z
 ---------------------------------------------------------------------
      1         15           0       -0.511625    0.486309   -0.000009
      2          9           0       -1.652289   -0.656911    0.000005
      3         17           0        1.379934   -0.187202    0.000002
      4          1           0       -0.913896    1.799993    0.000055
 ---------------------------------------------------------------------

 SCF Done:  E(RHF) =  -899.820013667     A.U. after   12 cycles
 E2 =    -0.4416953289D+00 EUMP2 =    -0.90026170899552D+03
 SCF Done:  E(RHF) =  -899.819994721     A.U. after    8 cycles
 E2 =    -0.4417211739D+00 EUMP2 =    -0.90026171589527D+03
 SCF Done:  E(RHF) =  -899.820031080     A.U. after    8 cycles
 E2 =    -0.4416695226D+00 EUMP2 =    -0.90026170060229D+03
 SCF Done:  E(RHF) =  -899.820001669     A.U. after    8 cycles
 E2 =    -0.4417084205D+00 EUMP2 =    -0.90026171008981D+03
 SCF Done:  E(RHF) =  -899.820023818     A.U. after    8 cycles
 E2 =    -0.4416822705D+00 EUMP2 =    -0.90026170608839D+03
 SCF Done:  E(RHF) =  -899.820014303     A.U. after    9 cycles
 E2 =    -0.4416951887D+00 EUMP2 =    -0.90026170949132D+03
 SCF Done:  E(RHF) =  -899.820014394     A.U. after    9 cycles
 E2 =    -0.4416951682D+00 EUMP2 =    -0.90026170956217D+03
 SCF Done:  E(RHF) =  -899.820038256     A.U. after    7 cycles
 E2 =    -0.4416699162D+00 EUMP2 =    -0.90026170817191D+03
 SCF Done:  E(RHF) =  -899.819988405     A.U. after    7 cycles
 E2 =    -0.4417207440D+00 EUMP2 =    -0.90026170914905D+03
 SCF Done:  E(RHF) =  -899.820034363     A.U. after    7 cycles
 E2 =    -0.4416729569D+00 EUMP2 =    -0.90026170731951D+03
 E2 =    -0.4417177108D+00 EUMP2 =    -0.90026170998077D+03
 E2 =    -0.4416953189D+00 EUMP2 =    -0.90026170905778D+03
 E2 =    -0.4416953251D+00 EUMP2 =    -0.90026170903554D+03
 E2 =    -0.4416945424D+00 EUMP2 =    -0.90026170025951D+03
 E2 =    -0.4416961435D+00 EUMP2 =    -0.90026171701178D+03
 SCF Done:  E(RHF) =  -899.820012586     A.U. after    8 cycles
 E2 =    -0.4416989625D+00 EUMP2 =    -0.90026171154849D+03
 SCF Done:  E(RHF) =  -899.820014598     A.U. after    8 cycles
 E2 =    -0.4416917036D+00 EUMP2 =    -0.90026170630181D+03
 SCF Done:  E(RHF) =  -899.820013731     A.U. after    8 cycles
 E2 =    -0.4416953134D+00 EUMP2 =    -0.90026170904407D+03
 SCF Done:  E(RHF) =  -899.820013705     A.U. after    8 cycles
 E2 =    -0.4416953192D+00 EUMP2 =    -0.90026170902441D+03
 SCF Done:  E(RHF) =  -899.820014404     A.U. after    7 cycles
 E2 =    -0.4416957272D+00 EUMP2 =    -0.90026171013135D+03
 SCF Done:  E(RHF) =  -899.820012745     A.U. after    7 cycles
 E2 =    -0.4416949432D+00 EUMP2 =    -0.90026170768846D+03
 SCF Done:  E(RHF) =  -899.820004233     A.U. after    7 cycles
 E2 =    -0.4417010096D+00 EUMP2 =    -0.90026170524305D+03
 SCF Done:  E(RHF) =  -899.820022165     A.U. after    7 cycles
 E2 =    -0.4416896618D+00 EUMP2 =    -0.90026171182710D+03
 SCF Done:  E(RHF) =  -899.820013800     A.U. after    9 cycles
 E2 =    -0.4416952992D+00 EUMP2 =    -0.90026170909937D+03
 SCF Done:  E(RHF) =  -899.820013763     A.U. after    9 cycles
 E2 =    -0.4416953078D+00 EUMP2 =    -0.90026170907061D+03

 Alpha  occ. eigenvalues -- -104.84091 -80.00533 -26.31153 -10.60300  -8.07804
 Alpha  occ. eigenvalues --   -8.07434  -8.07361  -7.56917  -5.47288  -5.47132
 Alpha  occ. eigenvalues --   -5.46934  -1.58566  -1.14372  -0.84857  -0.70159
 Alpha  occ. eigenvalues --   -0.69590  -0.68151  -0.58291  -0.52262  -0.50605
 Alpha  occ. eigenvalues --   -0.28932
 Alpha virt. eigenvalues --    0.04822   0.16578   0.23046   0.36808   0.49719
 Alpha virt. eigenvalues --    0.64513   0.65799   0.71218   0.72053   0.76131
 Alpha virt. eigenvalues --    0.81027   0.90709   0.92907   0.96581   1.00656

 Mulliken charges:
               1
     1  P    0.414381
     2  F   -0.360601
     3  Cl  -0.134454
     4  H    0.080674
 Sum of Mulliken charges =  -0.00000

 Dipole moment (field-independent basis, Debye):
    X=              0.3811    Y=              1.7270    Z=             -0.0028  Tot=              1.7686
 Quadrupole moment (field-independent basis, Debye-Ang):
   XX=            -31.1018   YY=            -27.8982   ZZ=            -32.7103
   XY=             -2.4849   XZ=              0.0024   YZ=             -0.0034

 ******    1 imaginary frequencies (negative Signs) ******

                      1                      2                      3
                      A                      A                      A
 Frequencies --  -1167.5088               236.4996               583.5809
 Red. masses --      1.2338                19.4946                14.3178
 Frc consts  --      0.9909                 0.6424                 2.8729
 IR Inten    --    418.2186                 7.9117                19.9484

                      4                      5                      6
                      A                      A                      A
 Frequencies --    828.0939               903.3800              2736.9086
 Red. masses --      1.1464                10.0738                 1.0422
 Frc consts  --      0.4632                 4.8438                 4.5995
 IR Inten    --     25.5275               125.8173                10.6568

 - Thermochemistry -
 -------------------
 Temperature   298.150 Kelvin.  Pressure   1.00000 Atm.
 Atom     1 has atomic number 15 and mass  30.97376

 Molecular mass:    85.94884 amu.
 Principal axes and moments of inertia in atomic units:
                           1         2         3
     Eigenvalues --    71.11617 455.13395 526.25012
           X            0.99979  -0.02070  -0.00000
           Y            0.02070   0.99979   0.00001
           Z            0.00000  -0.00001   1.00000
 This molecule is an asymmetric top.
 Rotational symmetry number  1.
 Rotational temperatures (Kelvin)      1.21792     0.19030     0.16459
 Rotational constants (GHZ):          25.37737     3.96530     3.42944
    1 imaginary frequencies ignored.
 Zero-point vibrational energy      31632.0 (Joules/Mol)
                                    7.56024 (Kcal/Mol)
 Warning -- explicit consideration of   2 degrees of freedom as
           vibrations may cause significant error
 Vibrational temperatures:    340.27   839.64  1191.44  1299.76  3937.80
          (Kelvin)

 Zero-point correction=                           0.012048 (Hartree/Particle)
 Thermal correction to Energy=                    0.015680
 Thermal correction to Enthalpy=                  0.016624
 Thermal correction to Gibbs Free Energy=        -0.014851
 Sum of electronic and zero-point Energies=           -900.281664
 Sum of electronic and thermal Energies=              -900.278033
 Sum of electronic and thermal Enthalpies=            -900.277089
 Sum of electronic and thermal Free Energies=         -900.308564

                     E (Thermal)             CV                S
                      KCal/Mol        Cal/Mol-Kelvin    Cal/Mol-Kelvin
 Total                    9.839              9.915             66.245
 Electronic               0.000              0.000              0.000
 Translational            0.889              2.981             39.267
 Rotational               0.889              2.981             24.347
 Vibrational              8.062              3.953              2.631
 Vibration     1          0.655              1.785              1.829
 Vibration     2          0.940              1.067              0.479

 Optimization completed.
    -- Stationary point found.
 Normal termination of Gaussian 16 at Thu Jan 25 06:49:55 2024.
