 Gaussian 16, Revision C.01,
 Gaussian 16:  ES64L-G16RevC.01  3-Jul-2019

 ------------------------------------
 #N CCSD/def2SVP SP Geom=Connectivity
 ------------------------------------

 -------
 TS_freq
 -------
 Symbolic Z-matrix:
 Charge =  0 Multiplicity = 1

                         Standard orientation:
 ---------------------------------------------------------------------
 Center     Atomic      Atomic             Coordinates (Angstroms)
 Number     Number       Type             X           Y           Z
 ---------------------------------------------------------------------
      1         15           0       -0.511625    0.486309   -0.000009
      2          9           0       -1.652289   -0.656911    0.000005
      3         17           0        1.379934   -0.187202    0.000002
      4          1           0       -0.913897    1.799993    0.000055
 ---------------------------------------------------------------------

 SCF Done:  E(RHF) =  -899.820013666     A.U. after   12 cycles
 E2 =    -0.4416953285D+00 EUMP2 =    -0.90026170899431D+03

 The electronic state is 1-A.
 Alpha  occ. eigenvalues -- -104.84091 -80.00533 -26.31153 -10.60300  -8.07804
 Alpha  occ. eigenvalues --   -8.07434  -8.07361  -7.56917  -5.47288  -5.47132
 Alpha  occ. eigenvalues --   -5.46934  -1.58566  -1.14372  -0.84857  -0.70159
 Alpha  occ. eigenvalues --   -0.69590  -0.68151  -0.58291  -0.52262  -0.50605
 Alpha  occ. eigenvalues --   -0.28932
 Alpha virt. eigenvalues --    0.04822   0.16578   0.23046   0.36808   0.49719
 Alpha virt. eigenvalues --    0.64513   0.65799   0.71218   0.72053   0.76131
 Alpha virt. eigenvalues --    0.81027   0.90709   0.92907   0.96581   1.00656

 Mulliken charges:
               1
     1  P    0.441580
     2  F   -0.419096
     3  Cl  -0.153137
     4  H    0.130653
 Sum of Mulliken charges =  -0.00000

 Dipole moment (field-independent basis, Debye):
    X=              0.4067    Y=              2.0190    Z=              0.0003  Tot=              2.0595
 Quadrupole moment (field-independent basis, Debye-Ang):
   XX=            -31.4175   YY=            -27.5683   ZZ=            -33.0668
   XY=             -2.9234   XZ=             -0.0003   YZ=              0.0003

 Normal termination of Gaussian 16 at Fri Jan 26 20:18:18 2024.
