                         Program Version 5.0.4 -  RELEASE  -
|  1> !HF-3c FREQ
|  2> * XYZ 0 1
|  3> Cl          0.19006056    0.25790492    2.58655500
|  4>  C         -0.60739791   -0.27595767    1.12806237
|  5>  C          0.00986803   -0.05793149   -0.10714141
|  6>  N          1.26860893    0.58631849   -0.17639968
|  7>  C          1.45531058    1.94713569   -0.31216982
|  8>  C          0.28391844    2.90060925   -0.39287040
|  9>  C          2.80808997    2.11887550   -0.33712000
| 10>  C          3.61854863    3.43253303   -0.45444253
| 11>  F          4.77890301    3.23827910   -1.11125314
| 12>  F          2.92746305    4.38690281   -1.12220204
| 13>  F          3.92564058    3.95483565    0.75718403
| 14>  N          3.45737505    0.89820355   -0.21549778
| 15>  C          2.52801895   -0.00761308   -0.12178768
| 16>  C          2.73968101   -1.45788705    0.02164065
| 17>  C          1.91514337   -2.53261447    0.10869918
| 18>  C          2.76767468   -3.69721103    0.23622428
| 19>  C          4.03652716   -3.22453952    0.21507351
| 20> Cl          5.56615162   -4.02243376    0.32038456
| 21>  O          4.03657627   -1.87308073    0.08594232
| 22>  C         -0.63055354   -0.49008539   -1.27219367
| 23> Cl          0.13869676   -0.22584830   -2.81715298
| 24>  C         -1.86382222   -1.13281703   -1.20628095
| 25>  C         -2.45968580   -1.34311068    0.03131999
| 26>  C         -1.84042990   -0.91849113    1.20055389
| 27>  H         -0.33091539    2.81950068    0.50235403
| 28>  H          0.64204019    3.92254329   -0.48303378
| 29>  H         -0.33438867    2.66910553   -1.25899291
| 30>  H          0.84056932   -2.54234576    0.08837460
| 31>  H          2.45519018   -4.72452545    0.32833177
| 32>  H         -2.34560275   -1.46376789   -2.11752987
| 33>  H         -3.41861939   -1.84421420    0.08525985
| 34>  H         -2.30403423   -1.08226860    2.16506410
| 35> **                         ****END OF INPUT****

CARTESIAN COORDINATES (ANGSTROEM)
---------------------------------
  Cl     0.190061    0.257905    2.586555
  C     -0.607398   -0.275958    1.128062
  C      0.009868   -0.057931   -0.107141
  N      1.268609    0.586318   -0.176400
  C      1.455311    1.947136   -0.312170
  C      0.283918    2.900609   -0.392870
  C      2.808090    2.118876   -0.337120
  C      3.618549    3.432533   -0.454443
  F      4.778903    3.238279   -1.111253
  F      2.927463    4.386903   -1.122202
  F      3.925641    3.954836    0.757184
  N      3.457375    0.898204   -0.215498
  C      2.528019   -0.007613   -0.121788
  C      2.739681   -1.457887    0.021641
  C      1.915143   -2.532614    0.108699
  C      2.767675   -3.697211    0.236224
  C      4.036527   -3.224540    0.215074
  Cl     5.566152   -4.022434    0.320385
  O      4.036576   -1.873081    0.085942
  C     -0.630554   -0.490085   -1.272194
  Cl     0.138697   -0.225848   -2.817153
  C     -1.863822   -1.132817   -1.206281
  C     -2.459686   -1.343111    0.031320
  C     -1.840430   -0.918491    1.200554
  H     -0.330915    2.819501    0.502354
  H      0.642040    3.922543   -0.483034
  H     -0.334389    2.669106   -1.258993
  H      0.840569   -2.542346    0.088375
  H      2.455190   -4.724525    0.328332
  H     -2.345603   -1.463768   -2.117530
  H     -3.418619   -1.844214    0.085260
  H     -2.304034   -1.082269    2.165064

 Total Charge           Charge          ....    0
 Multiplicity           Mult            ....    1
 Number of Electrons    NEL             ....  198
 Basis Dimension        Dim             ....  155

ORBITAL ENERGIES
----------------

  NO   OCC          E(Eh)            E(eV)
   0   2.0000    -104.123965     -2833.3571
   1   2.0000    -104.121115     -2833.2796
   2   2.0000    -104.121000     -2833.2765
   3   2.0000     -26.032279      -708.3743
   4   2.0000     -26.031275      -708.3470
   5   2.0000     -26.026449      -708.2157
   6   2.0000     -20.473995      -557.1257
   7   2.0000     -15.546192      -423.0334
   8   2.0000     -15.443216      -420.2313
   9   2.0000     -11.508651      -313.1663
  10   2.0000     -11.325525      -308.1832
  11   2.0000     -11.312705      -307.8344
  12   2.0000     -11.312632      -307.8324
  13   2.0000     -11.308524      -307.7206
  14   2.0000     -11.296749      -307.4002
  15   2.0000     -11.293110      -307.3011
  16   2.0000     -11.273421      -306.7654
  17   2.0000     -11.252602      -306.1989
  18   2.0000     -11.250232      -306.1344
  19   2.0000     -11.249432      -306.1126
  20   2.0000     -11.230356      -305.5935
  21   2.0000     -11.209042      -305.0135
  22   2.0000     -11.206820      -304.9531
  23   2.0000     -11.205994      -304.9306
  24   2.0000     -10.546186      -286.9763
  25   2.0000     -10.546050      -286.9726
  26   2.0000     -10.545464      -286.9567
  27   2.0000      -7.980526      -217.1611
  28   2.0000      -7.980389      -217.1574
  29   2.0000      -7.980220      -217.1528
  30   2.0000      -7.975817      -217.0330
  31   2.0000      -7.975746      -217.0311
  32   2.0000      -7.975680      -217.0293
  33   2.0000      -7.975608      -217.0273
  34   2.0000      -7.975265      -217.0180
  35   2.0000      -7.975253      -217.0177
  36   2.0000      -1.694074       -46.0981
  37   2.0000      -1.589085       -43.2412
  38   2.0000      -1.584461       -43.1154
  39   2.0000      -1.506746       -41.0007
  40   2.0000      -1.403987       -38.2044
  41   2.0000      -1.279924       -34.8285
  42   2.0000      -1.215376       -33.0721
  43   2.0000      -1.193046       -32.4644
  44   2.0000      -1.164354       -31.6837
  45   2.0000      -1.142095       -31.0780
  46   2.0000      -1.130447       -30.7610
  47   2.0000      -1.107203       -30.1285
  48   2.0000      -1.064787       -28.9743
  49   2.0000      -1.044540       -28.4234
  50   2.0000      -1.027885       -27.9702
  51   2.0000      -0.995755       -27.0959
  52   2.0000      -0.937047       -25.4984
  53   2.0000      -0.904475       -24.6120
  54   2.0000      -0.875208       -23.8156
  55   2.0000      -0.850753       -23.1502
  56   2.0000      -0.837661       -22.7939
  57   2.0000      -0.820658       -22.3312
  58   2.0000      -0.786175       -21.3929
  59   2.0000      -0.766861       -20.8674
  60   2.0000      -0.759954       -20.6794
  61   2.0000      -0.756157       -20.5761
  62   2.0000      -0.746798       -20.3214
  63   2.0000      -0.735772       -20.0214
  64   2.0000      -0.715730       -19.4760
  65   2.0000      -0.689282       -18.7563
  66   2.0000      -0.684541       -18.6273
  67   2.0000      -0.654136       -17.8000
  68   2.0000      -0.651372       -17.7247
  69   2.0000      -0.643604       -17.5134
  70   2.0000      -0.637174       -17.3384
  71   2.0000      -0.636736       -17.3265
  72   2.0000      -0.632547       -17.2125
  73   2.0000      -0.618554       -16.8317
  74   2.0000      -0.610677       -16.6174
  75   2.0000      -0.596389       -16.2286
  76   2.0000      -0.594118       -16.1668
  77   2.0000      -0.590890       -16.0789
  78   2.0000      -0.585974       -15.9452
  79   2.0000      -0.581795       -15.8314
  80   2.0000      -0.580627       -15.7997
  81   2.0000      -0.577460       -15.7135
  82   2.0000      -0.571247       -15.5444
  83   2.0000      -0.554428       -15.0868
  84   2.0000      -0.552832       -15.0433
  85   2.0000      -0.540419       -14.7056
  86   2.0000      -0.525113       -14.2891
  87   2.0000      -0.507279       -13.8038
  88   2.0000      -0.490710       -13.3529
  89   2.0000      -0.485680       -13.2160
  90   2.0000      -0.478127       -13.0105
  91   2.0000      -0.472120       -12.8470
  92   2.0000      -0.446935       -12.1617
  93   2.0000      -0.437055       -11.8929
  94   2.0000      -0.427012       -11.6196
  95   2.0000      -0.403843       -10.9891
  96   2.0000      -0.398544       -10.8449
  97   2.0000      -0.389190       -10.5904
  98   2.0000      -0.319176        -8.6852
  99   0.0000       0.101450         2.7606
 100   0.0000       0.107996         2.9387
 101   0.0000       0.117296         3.1918
 102   0.0000       0.202225         5.5028
 103   0.0000       0.208317         5.6686

MULLIKEN ATOMIC CHARGES
-----------------------
   0 Cl:   -0.089165
   1 C :    0.041901
   2 C :    0.109704
   3 N :   -0.278416
   4 C :    0.134533
   5 C :   -0.382430
   6 C :    0.018546
   7 C :    0.785246
   8 F :   -0.284017
   9 F :   -0.299878
  10 F :   -0.293170
  11 N :   -0.253562
  12 C :    0.217874
  13 C :    0.186222
  14 C :   -0.164478
  15 C :   -0.161791
  16 C :    0.234907
  17 Cl:   -0.073339
  18 O :   -0.349038
  19 C :    0.041658
  20 Cl:   -0.089558
  21 C :   -0.124022
  22 C :   -0.120253
  23 C :   -0.123905
  24 H :    0.153904
  25 H :    0.167369
  26 H :    0.154873
  27 H :    0.158140
  28 H :    0.167261
  29 H :    0.173814
  30 H :    0.167211
  31 H :    0.173857
Sum of atomic charges:   -0.0000000

LOEWDIN ATOMIC CHARGES
----------------------
   0 Cl:   -0.056017
   1 C :    0.030547
   2 C :    0.055469
   3 N :   -0.101694
   4 C :    0.094309
   5 C :   -0.246132
   6 C :   -0.055775
   7 C :    0.619056
   8 F :   -0.217285
   9 F :   -0.233611
  10 F :   -0.228276
  11 N :   -0.183411
  12 C :    0.122511
  13 C :    0.125638
  14 C :   -0.129177
  15 C :   -0.134665
  16 C :    0.154248
  17 Cl:   -0.036326
  18 O :   -0.198409
  19 C :    0.030321
  20 Cl:   -0.056363
  21 C :   -0.083221
  22 C :   -0.061878
  23 C :   -0.083098
  24 H :    0.103926
  25 H :    0.113874
  26 H :    0.104675
  27 H :    0.104276
  28 H :    0.110698
  29 H :    0.113600
  30 H :    0.108558
  31 H :    0.113632

  Mayer bond orders larger than 0.100000
B(  0-Cl,  1-C ) :   1.0178 B(  1-C ,  2-C ) :   1.3889 B(  1-C , 21-C ) :   0.1058
B(  1-C , 23-C ) :   1.4200 B(  2-C ,  3-N ) :   0.9836 B(  2-C , 19-C ) :   1.3889
B(  2-C , 22-C ) :   0.1067 B(  3-N ,  4-C ) :   1.1537 B(  3-N , 12-C ) :   1.0934
B(  4-C ,  5-C ) :   1.0216 B(  4-C ,  6-C ) :   1.5826 B(  5-C , 24-H ) :   0.9587
B(  5-C , 25-H ) :   0.9622 B(  5-C , 26-H ) :   0.9583 B(  6-C ,  7-C ) :   0.9463
B(  6-C , 11-N ) :   1.2192 B(  7-C ,  8-F ) :   0.9136 B(  7-C ,  9-F ) :   0.8953
B(  7-C , 10-F ) :   0.8976 B( 11-N , 12-C ) :   1.6208 B( 12-C , 13-C ) :   1.0444
B( 13-C , 14-C ) :   1.6456 B( 13-C , 16-C ) :   0.1108 B( 13-C , 18-O ) :   1.0258
B( 14-C , 15-C ) :   1.2196 B( 14-C , 27-H ) :   0.9603 B( 15-C , 16-C ) :   1.6537
B( 15-C , 28-H ) :   0.9590 B( 16-C , 17-Cl) :   1.0254 B( 16-C , 18-O ) :   1.0439
B( 19-C , 20-Cl) :   1.0176 B( 19-C , 21-C ) :   1.4201 B( 19-C , 23-C ) :   0.1058
B( 21-C , 22-C ) :   1.4448 B( 21-C , 29-H ) :   0.9518 B( 22-C , 23-C ) :   1.4449
B( 22-C , 30-H ) :   0.9530 B( 23-C , 31-H ) :   0.9517

Dispersion correction           -0.194918973
FINAL SINGLE POINT ENERGY     -2419.945054695207

DIPOLE MOMENT
-------------
                                X             Y             Z
Electronic contribution:     20.72017       6.12165      -0.55309
Nuclear contribution   :    -24.44692      -7.51864       0.68108
                        -----------------------------------------
Total Dipole Moment    :     -3.72675      -1.39699       0.12799
                        -----------------------------------------
Magnitude (a.u.)       :      3.98204
Magnitude (Debye)      :     10.12153

Dispersion correction in the Hessian             ... done   (     32.0 sec)

VIBRATIONAL FREQUENCIES
-----------------------

Scaling factor for frequencies =  1.000000000  (already applied!)

   0:         0.00 cm**-1
   1:         0.00 cm**-1
   2:         0.00 cm**-1
   3:         0.00 cm**-1
   4:         0.00 cm**-1
   5:         0.00 cm**-1
   6:         5.38 cm**-1
   7:        20.41 cm**-1
   8:        32.36 cm**-1
   9:        44.98 cm**-1
  10:        53.35 cm**-1
  11:        66.19 cm**-1
  12:        79.67 cm**-1
  13:        96.99 cm**-1
  14:       111.08 cm**-1
  15:       128.63 cm**-1
  16:       156.63 cm**-1
  17:       174.16 cm**-1
  18:       183.78 cm**-1
  19:       232.59 cm**-1
  20:       239.82 cm**-1
  21:       268.36 cm**-1
  22:       282.16 cm**-1
  23:       308.83 cm**-1
  24:       318.11 cm**-1
  25:       344.06 cm**-1
  26:       370.11 cm**-1
  27:       376.46 cm**-1
  28:       415.13 cm**-1
  29:       436.71 cm**-1
  30:       459.18 cm**-1
  31:       471.98 cm**-1
  32:       521.38 cm**-1
  33:       562.17 cm**-1
  34:       563.33 cm**-1
  35:       584.24 cm**-1
  36:       601.24 cm**-1
  37:       617.15 cm**-1
  38:       622.47 cm**-1
  39:       709.63 cm**-1
  40:       725.10 cm**-1
  41:       745.45 cm**-1
  42:       761.87 cm**-1
  43:       797.63 cm**-1
  44:       831.26 cm**-1
  45:       840.52 cm**-1
  46:       852.10 cm**-1
  47:       909.01 cm**-1
  48:       914.53 cm**-1
  49:       957.50 cm**-1
  50:       995.97 cm**-1
  51:      1048.23 cm**-1
  52:      1073.66 cm**-1
  53:      1085.46 cm**-1
  54:      1113.75 cm**-1
  55:      1136.42 cm**-1
  56:      1136.49 cm**-1
  57:      1145.55 cm**-1
  58:      1161.38 cm**-1
  59:      1192.52 cm**-1
  60:      1207.85 cm**-1
  61:      1216.26 cm**-1
  62:      1232.74 cm**-1
  63:      1292.81 cm**-1
  64:      1303.04 cm**-1
  65:      1306.87 cm**-1
  66:      1326.60 cm**-1
  67:      1334.89 cm**-1
  68:      1369.09 cm**-1
  69:      1384.26 cm**-1
  70:      1420.31 cm**-1
  71:      1427.05 cm**-1
  72:      1458.06 cm**-1
  73:      1503.41 cm**-1
  74:      1532.22 cm**-1
  75:      1573.83 cm**-1
  76:      1608.83 cm**-1
  77:      1634.36 cm**-1
  78:      1640.53 cm**-1
  79:      1648.83 cm**-1
  80:      1702.43 cm**-1
  81:      1705.62 cm**-1
  82:      1734.77 cm**-1
  83:      1762.22 cm**-1
  84:      1804.95 cm**-1
  85:      1816.54 cm**-1
  86:      1835.42 cm**-1
  87:      1876.27 cm**-1
  88:      3536.95 cm**-1
  89:      3652.57 cm**-1
  90:      3675.71 cm**-1
  91:      3680.08 cm**-1
  92:      3688.98 cm**-1
  93:      3699.44 cm**-1
  94:      3736.99 cm**-1
  95:      3765.69 cm**-1

IR SPECTRUM
-----------

 Mode   freq       eps      Int      T**2         TX        TY        TZ
       cm**-1   L/(mol*cm) km/mol    a.u.
----------------------------------------------------------------------------
  6:      5.38   0.000016    0.08  0.000928  (-0.002212  0.003721  0.030158)
  7:     20.41   0.000005    0.03  0.000082  (-0.005511  0.000499 -0.007142)
  8:     32.36   0.000023    0.12  0.000225  (-0.001253  0.001953  0.014832)
  9:     44.98   0.000005    0.02  0.000032  (-0.001486  0.000818 -0.005372)
 10:     53.35   0.000108    0.55  0.000634  ( 0.012302 -0.021866  0.002183)
 11:     66.19   0.000013    0.06  0.000060  ( 0.003307 -0.006695 -0.002164)
 12:     79.67   0.000538    2.72  0.002109  (-0.001469 -0.003048 -0.045794)
 13:     96.99   0.000092    0.47  0.000297  ( 0.009842 -0.014144  0.000160)
 14:    111.08   0.000009    0.04  0.000025  (-0.000878 -0.001892 -0.004524)
 15:    128.63   0.000067    0.34  0.000164  ( 0.001282 -0.000461 -0.012719)
 16:    156.63   0.000040    0.20  0.000080  (-0.008708  0.001623  0.001344)
 17:    174.16   0.000133    0.67  0.000239  ( 0.014843  0.003001 -0.003090)
 18:    183.78   0.000030    0.15  0.000051  ( 0.003333 -0.000482  0.006283)
 19:    232.59   0.000000    0.00  0.000000  ( 0.000055  0.000030  0.000628)
 20:    239.82   0.000217    1.10  0.000283  ( 0.010132  0.013358 -0.001217)
 21:    268.36   0.000009    0.05  0.000011  ( 0.001715  0.002767  0.000134)
 22:    282.16   0.000433    2.19  0.000479  ( 0.012497  0.017856 -0.001883)
 23:    308.83   0.000033    0.17  0.000034  ( 0.005482  0.001610 -0.001010)
 24:    318.11   0.000112    0.57  0.000110  ( 0.000183  0.010464 -0.000744)
 25:    344.06   0.000074    0.37  0.000067  (-0.001033  0.000719  0.008100)
 26:    370.11   0.000101    0.51  0.000085  ( 0.009084 -0.001560 -0.000061)
 27:    376.46   0.000009    0.05  0.000008  (-0.001508 -0.002063 -0.001083)
 28:    415.13   0.000742    3.75  0.000558  ( 0.012798 -0.019699  0.002481)
 29:    436.71   0.000305    1.54  0.000218  (-0.000253 -0.002807 -0.014484)
 30:    459.18   0.001122    5.67  0.000763  (-0.020917 -0.017903  0.002140)
 31:    471.98   0.000042    0.21  0.000028  (-0.002842 -0.003851 -0.002228)
 32:    521.38   0.000094    0.47  0.000056  (-0.002629  0.006871 -0.001388)
 33:    562.17   0.001160    5.86  0.000644  ( 0.021692 -0.012984 -0.002178)
 34:    563.33   0.001093    5.53  0.000606  (-0.001912 -0.000055 -0.024536)
 35:    584.24   0.000144    0.73  0.000077  (-0.004177 -0.007707 -0.000392)
 36:    601.24   0.000236    1.19  0.000123  (-0.009178 -0.006003  0.001525)
 37:    617.15   0.000402    2.03  0.000203  ( 0.001921 -0.000446 -0.014124)
 38:    622.47   0.000002    0.01  0.000001  (-0.000108 -0.000071 -0.000865)
 39:    709.63   0.001050    5.31  0.000462  (-0.009066  0.019454 -0.001105)
 40:    725.10   0.000020    0.10  0.000009  (-0.000209  0.000357  0.002927)
 41:    745.45   0.007180   36.28  0.003006  ( 0.035392  0.041641 -0.004374)
 42:    761.87   0.000869    4.39  0.000356  ( 0.000883  0.001515  0.018790)
 43:    797.63   0.000594    3.00  0.000232  ( 0.008073  0.012851 -0.001431)
 44:    831.26   0.000700    3.54  0.000263  ( 0.015676  0.004042 -0.000801)
 45:    840.52   0.000101    0.51  0.000037  ( 0.002241  0.000239 -0.005686)
 46:    852.10   0.000305    1.54  0.000112  (-0.002123 -0.002116 -0.010126)
 47:    909.01   0.010911   55.14  0.003746  ( 0.000438 -0.006768 -0.060825)
 48:    914.53   0.002423   12.24  0.000827  (-0.016985  0.022663 -0.004956)
 49:    957.50   0.005879   29.71  0.001916  (-0.019509  0.039059 -0.003149)
 50:    995.97   0.005513   27.86  0.001727  (-0.001072  0.003730  0.041379)
 51:   1048.23   0.002341   11.83  0.000697  (-0.021747 -0.014933  0.001069)
 52:   1073.66   0.006458   32.64  0.001877  ( 0.043258  0.002371  0.000355)
 53:   1085.46   0.000166    0.84  0.000048  ( 0.000555 -0.000701 -0.006845)
 54:   1113.75   0.000000    0.00  0.000000  ( 0.000045 -0.000060 -0.000261)
 55:   1136.42   0.001248    6.31  0.000343  (-0.014497 -0.005789 -0.009952)
 56:   1136.49   0.001259    6.36  0.000346  (-0.008522 -0.001274  0.016473)
 57:   1145.55   0.003146   15.90  0.000857  (-0.017838 -0.023143  0.001827)
 58:   1161.38   0.000824    4.16  0.000221  (-0.013801 -0.005502  0.000763)
 59:   1192.52   0.022320  112.80  0.005841  ( 0.048037  0.059313 -0.003901)
 60:   1207.85   0.000092    0.47  0.000024  (-0.004406  0.002096 -0.000231)
 61:   1216.26   0.012916   65.27  0.003314  ( 0.025121  0.051673 -0.003585)
 62:   1232.74   0.001497    7.57  0.000379  ( 0.001194 -0.000685 -0.019418)
 63:   1292.81   0.014296   72.24  0.003451  ( 0.037424  0.045176 -0.003048)
 64:   1303.04   0.001811    9.15  0.000434  (-0.013305  0.015992 -0.000908)
 65:   1306.87   0.001158    5.85  0.000276  ( 0.000106 -0.001563 -0.016552)
 66:   1326.60   0.000594    3.00  0.000140  (-0.010979 -0.004360  0.000471)
 67:   1334.89   0.006764   34.18  0.001581  (-0.008636 -0.038646  0.003626)
 68:   1369.09   0.001894    9.57  0.000432  (-0.000342 -0.002000 -0.020680)
 69:   1384.26   0.031591  159.65  0.007122  ( 0.019647  0.004382  0.081954)
 70:   1420.31   0.033826  170.94  0.007432  (-0.079801  0.028492  0.015877)
 71:   1427.05   0.006113   30.89  0.001337  (-0.004531  0.035336 -0.008226)
 72:   1458.06   0.002105   10.64  0.000451  (-0.017375 -0.012055  0.001840)
 73:   1503.41   0.005891   29.77  0.001223  ( 0.009059 -0.033464  0.004559)
 74:   1532.22   0.005199   26.27  0.001059  ( 0.009780  0.030850 -0.003388)
 75:   1573.83   0.002947   14.89  0.000584  (-0.020393 -0.012936  0.001009)
 76:   1608.83   0.000091    0.46  0.000018  (-0.001370 -0.003909  0.000669)
 77:   1634.36   0.001982   10.02  0.000378  ( 0.018930  0.004262 -0.001372)
 78:   1640.53   0.017620   89.04  0.003352  (-0.000310 -0.004884 -0.057687)
 79:   1648.83   0.013260   67.01  0.002510  (-0.044961 -0.022079  0.000828)
 80:   1702.43   0.004843   24.48  0.000888  (-0.016194 -0.014457 -0.020410)
 81:   1705.62   0.008356   42.23  0.001529  ( 0.028355  0.020958 -0.016898)
 82:   1734.77   0.028094  141.97  0.005054  (-0.064587 -0.029578  0.002721)
 83:   1762.22   0.023817  120.36  0.004218  ( 0.055197 -0.033981  0.004016)
 84:   1804.95   0.003559   17.99  0.000615  ( 0.000407  0.002180  0.024707)
 85:   1816.54   0.002798   14.14  0.000481  (-0.020663  0.007304 -0.000607)
 86:   1835.42   0.005440   27.49  0.000925  (-0.028275  0.011145 -0.001073)
 87:   1876.27   0.000408    2.06  0.000068  (-0.003221 -0.007541  0.000785)
 88:   3536.95   0.010256   51.83  0.000905  ( 0.020761 -0.021670  0.002066)
 89:   3652.57   0.007895   39.90  0.000675  ( 0.000428  0.002472  0.025850)
 90:   3675.71   0.000664    3.36  0.000056  ( 0.006744  0.003297 -0.000265)
 91:   3680.08   0.013926   70.38  0.001181  (-0.019371 -0.028268  0.002562)
 92:   3688.98   0.045430  229.58  0.003843  ( 0.000447  0.005469  0.061749)
 93:   3699.44   0.058324  294.75  0.004920  ( 0.063595  0.029432 -0.003063)
 94:   3736.99   0.018779   94.90  0.001568  (-0.013246 -0.037175  0.003271)
 95:   3765.69   0.033527  169.43  0.002778  (-0.042846 -0.030628  0.002142)

--------------------------
THERMOCHEMISTRY AT 298.15K
--------------------------

Temperature         ... 298.15 K
Pressure            ... 1.00 atm
Total Mass          ... 395.59 AMU

Throughout the following assumptions are being made:
  (1) The electronic state is orbitally nondegenerate
  (2) There are no thermally accessible electronically excited states
  (3) Hindered rotations indicated by low frequency modes are not
      treated as such but are treated as vibrations and this may
      cause some error
  (4) All equations used are the standard statistical mechanics
      equations for an ideal gas
  (5) All vibrations are strictly harmonic

freq.       5.38  E(vib)   ...       0.58
freq.      20.41  E(vib)   ...       0.56
freq.      32.36  E(vib)   ...       0.55
freq.      44.98  E(vib)   ...       0.53
freq.      53.35  E(vib)   ...       0.52
freq.      66.19  E(vib)   ...       0.50
freq.      79.67  E(vib)   ...       0.49
freq.      96.99  E(vib)   ...       0.46
freq.     111.08  E(vib)   ...       0.45
freq.     128.63  E(vib)   ...       0.43
freq.     156.63  E(vib)   ...       0.40
freq.     174.16  E(vib)   ...       0.38
freq.     183.78  E(vib)   ...       0.37
freq.     232.59  E(vib)   ...       0.32
freq.     239.82  E(vib)   ...       0.31
freq.     268.36  E(vib)   ...       0.29
freq.     282.16  E(vib)   ...       0.28
freq.     308.83  E(vib)   ...       0.26
freq.     318.11  E(vib)   ...       0.25
freq.     344.06  E(vib)   ...       0.23
freq.     370.11  E(vib)   ...       0.21
freq.     376.46  E(vib)   ...       0.21
freq.     415.13  E(vib)   ...       0.19
freq.     436.71  E(vib)   ...       0.17
freq.     459.18  E(vib)   ...       0.16
freq.     471.98  E(vib)   ...       0.15
freq.     521.38  E(vib)   ...       0.13
freq.     562.17  E(vib)   ...       0.11
freq.     563.33  E(vib)   ...       0.11
freq.     584.24  E(vib)   ...       0.11
freq.     601.24  E(vib)   ...       0.10
freq.     617.15  E(vib)   ...       0.09
freq.     622.47  E(vib)   ...       0.09
freq.     709.63  E(vib)   ...       0.07
freq.     725.10  E(vib)   ...       0.06
freq.     745.45  E(vib)   ...       0.06
freq.     761.87  E(vib)   ...       0.06
freq.     797.63  E(vib)   ...       0.05
freq.     831.26  E(vib)   ...       0.04
freq.     840.52  E(vib)   ...       0.04
freq.     852.10  E(vib)   ...       0.04
freq.     909.01  E(vib)   ...       0.03
freq.     914.53  E(vib)   ...       0.03
freq.     957.50  E(vib)   ...       0.03
freq.     995.97  E(vib)   ...       0.02
freq.    1048.23  E(vib)   ...       0.02
freq.    1073.66  E(vib)   ...       0.02
freq.    1085.46  E(vib)   ...       0.02
freq.    1113.75  E(vib)   ...       0.01
freq.    1136.42  E(vib)   ...       0.01
freq.    1136.49  E(vib)   ...       0.01
freq.    1145.55  E(vib)   ...       0.01
freq.    1161.38  E(vib)   ...       0.01
freq.    1192.52  E(vib)   ...       0.01
freq.    1207.85  E(vib)   ...       0.01
freq.    1216.26  E(vib)   ...       0.01
freq.    1232.74  E(vib)   ...       0.01
freq.    1292.81  E(vib)   ...       0.01
freq.    1303.04  E(vib)   ...       0.01
freq.    1306.87  E(vib)   ...       0.01
freq.    1326.60  E(vib)   ...       0.01
freq.    1334.89  E(vib)   ...       0.01
freq.    1369.09  E(vib)   ...       0.01
freq.    1384.26  E(vib)   ...       0.00
freq.    1420.31  E(vib)   ...       0.00
freq.    1427.05  E(vib)   ...       0.00
freq.    1458.06  E(vib)   ...       0.00
freq.    1503.41  E(vib)   ...       0.00
freq.    1532.22  E(vib)   ...       0.00
freq.    1573.83  E(vib)   ...       0.00
freq.    1608.83  E(vib)   ...       0.00
freq.    1634.36  E(vib)   ...       0.00
freq.    1640.53  E(vib)   ...       0.00
freq.    1648.83  E(vib)   ...       0.00
freq.    1702.43  E(vib)   ...       0.00
freq.    1705.62  E(vib)   ...       0.00
freq.    1734.77  E(vib)   ...       0.00
freq.    1762.22  E(vib)   ...       0.00
freq.    1804.95  E(vib)   ...       0.00
freq.    1816.54  E(vib)   ...       0.00
freq.    1835.42  E(vib)   ...       0.00
freq.    1876.27  E(vib)   ...       0.00
freq.    3536.95  E(vib)   ...       0.00
freq.    3652.57  E(vib)   ...       0.00
freq.    3675.71  E(vib)   ...       0.00
freq.    3680.08  E(vib)   ...       0.00
freq.    3688.98  E(vib)   ...       0.00
freq.    3699.44  E(vib)   ...       0.00
freq.    3736.99  E(vib)   ...       0.00
freq.    3765.69  E(vib)   ...       0.00

------------
INNER ENERGY
------------

The inner energy is: U= E(el) + E(ZPE) + E(vib) + E(rot) + E(trans)
    E(el)   - is the total energy from the electronic structure calculation
              = E(kin-el) + E(nuc-el) + E(el-el) + E(nuc-nuc)
    E(ZPE)  - the the zero temperature vibrational energy from the frequency calculation
    E(vib)  - the the finite temperature correction to E(ZPE) due to population
              of excited vibrational states
    E(rot)  - is the rotational thermal energy
    E(trans)- is the translational thermal energy

Summary of contributions to the inner energy U:
Electronic energy                ...  -2419.94505470 Eh
Zero point energy                ...      0.23232662 Eh     145.79 kcal/mol
Thermal vibrational correction   ...      0.01718776 Eh      10.79 kcal/mol
Thermal rotational correction    ...      0.00141627 Eh       0.89 kcal/mol
Thermal translational correction ...      0.00141627 Eh       0.89 kcal/mol
-----------------------------------------------------------------------
Total thermal energy                  -2419.69270777 Eh

Summary of corrections to the electronic energy:
(perhaps to be used in another calculation)
Total thermal correction                  0.02002030 Eh      12.56 kcal/mol
Non-thermal (ZPE) correction              0.23232662 Eh     145.79 kcal/mol
-----------------------------------------------------------------------
Total correction                          0.25234692 Eh     158.35 kcal/mol

--------
ENTHALPY
--------

The enthalpy is H = U + kB*T
                kB is Boltzmann's constant
Total free energy                 ...  -2419.69270777 Eh
Thermal Enthalpy correction       ...      0.00094421 Eh       0.59 kcal/mol
-----------------------------------------------------------------------
Total Enthalpy                    ...  -2419.69176356 Eh

Note: Only C1 symmetry has been detected, increase convergence thresholds
      if your molecule has a higher symmetry. Symmetry factor of 1.0 is
      used for the rotational entropy correction.

Note: Rotational entropy computed according to Herzberg
Infrared and Raman Spectra, Chapter V,1, Van Nostrand Reinhold, 1945
Point Group:  C1, Symmetry Number:   1
Rotational constants in cm-1:     0.006284     0.005533     0.003801

                             ****ORCA TERMINATED NORMALLY****
TOTAL RUN TIME: 0 days 0 hours 28 minutes 46 seconds 800 msec
