                         Program Version 5.0.4 -  RELEASE  -
|  1> !HF-3c FREQ
|  2> * XYZ 0 1
|  3> Cl          0.04089325   -0.57376462   -2.57209158
|  4>  C         -0.62385529   -0.65920550   -0.95832932
|  5>  C          0.05263567   -0.03387610    0.09284954
|  6>  N          1.26435959    0.66351062   -0.14574181
|  7>  C          1.36038065    2.00288486   -0.46327606
|  8>  C          0.13091625    2.87321806   -0.59922773
|  9>  C          2.69738483    2.24128866   -0.59746677
| 10>  C          3.41650391    3.56130981   -0.96482098
| 11>  F          3.59226942    3.69574451   -2.30163741
| 12>  F          2.71416950    4.64477348   -0.55717486
| 13>  F          4.63621187    3.63049030   -0.39479953
| 14>  N          3.42422175    1.08105242   -0.37470871
| 15>  C          2.55575657    0.14951392   -0.10499687
| 16>  C          2.88326883   -1.25026226    0.20193711
| 17>  C          4.07908821   -1.88155532    0.27885354
| 18>  C          3.79163241   -3.26361036    0.61752528
| 19>  C          2.44351149   -3.34211040    0.71488291
| 20> Cl          1.38047373   -4.65622044    1.08336806
| 21>  O          1.87582171   -2.13160944    0.46630481
| 22>  C         -0.48083594   -0.10721789    1.38269341
| 23> Cl          0.36315462    0.66940707    2.70104623
| 24>  C         -1.66685975   -0.79577708    1.62104547
| 25>  C         -2.32282519   -1.41324043    0.56323707
| 26>  C         -1.81025779   -1.34938514   -0.72660196
| 27>  H         -0.42179474    2.89655161    0.33896962
| 28>  H          0.41985780    3.88769484   -0.85983801
| 29>  H         -0.52415425    2.48144412   -1.37617767
| 30>  H          5.04938936   -1.43620849    0.11846582
| 31>  H          4.50344515   -4.06092024    0.76148486
| 32>  H         -2.06441021   -0.84713566    2.62643814
| 33>  H         -3.24396324   -1.95247710    0.74667037
| 34>  H         -2.31954432   -1.83215117   -1.55065727
| 35> **                         ****END OF INPUT****

CARTESIAN COORDINATES (ANGSTROEM)
---------------------------------
  Cl     0.040893   -0.573765   -2.572092
  C     -0.623855   -0.659205   -0.958329
  C      0.052636   -0.033876    0.092850
  N      1.264360    0.663511   -0.145742
  C      1.360381    2.002885   -0.463276
  C      0.130916    2.873218   -0.599228
  C      2.697385    2.241289   -0.597467
  C      3.416504    3.561310   -0.964821
  F      3.592269    3.695745   -2.301637
  F      2.714170    4.644773   -0.557175
  F      4.636212    3.630490   -0.394800
  N      3.424222    1.081052   -0.374709
  C      2.555757    0.149514   -0.104997
  C      2.883269   -1.250262    0.201937
  C      4.079088   -1.881555    0.278854
  C      3.791632   -3.263610    0.617525
  C      2.443511   -3.342110    0.714883
  Cl     1.380474   -4.656220    1.083368
  O      1.875822   -2.131609    0.466305
  C     -0.480836   -0.107218    1.382693
  Cl     0.363155    0.669407    2.701046
  C     -1.666860   -0.795777    1.621045
  C     -2.322825   -1.413240    0.563237
  C     -1.810258   -1.349385   -0.726602
  H     -0.421795    2.896552    0.338970
  H      0.419858    3.887695   -0.859838
  H     -0.524154    2.481444   -1.376178
  H      5.049389   -1.436208    0.118466
  H      4.503445   -4.060920    0.761485
  H     -2.064410   -0.847136    2.626438
  H     -3.243963   -1.952477    0.746670
  H     -2.319544   -1.832151   -1.550657

 Total Charge           Charge          ....    0
 Multiplicity           Mult            ....    1
 Number of Electrons    NEL             ....  198
 Basis Dimension        Dim             ....  155

ORBITAL ENERGIES
----------------

  NO   OCC          E(Eh)            E(eV)
   0   2.0000    -104.129108     -2833.4971
   1   2.0000    -104.111008     -2833.0045
   2   2.0000    -104.110965     -2833.0034
   3   2.0000     -26.033195      -708.3993
   4   2.0000     -26.032364      -708.3766
   5   2.0000     -26.027264      -708.2379
   6   2.0000     -20.472681      -557.0900
   7   2.0000     -15.544948      -422.9995
   8   2.0000     -15.439705      -420.1357
   9   2.0000     -11.509309      -313.1842
  10   2.0000     -11.327799      -308.2451
  11   2.0000     -11.303159      -307.5746
  12   2.0000     -11.302717      -307.5626
  13   2.0000     -11.300629      -307.5058
  14   2.0000     -11.296169      -307.3844
  15   2.0000     -11.290878      -307.2404
  16   2.0000     -11.271612      -306.7162
  17   2.0000     -11.241030      -305.8840
  18   2.0000     -11.239269      -305.8360
  19   2.0000     -11.238316      -305.8101
  20   2.0000     -11.229474      -305.5695
  21   2.0000     -11.212157      -305.0983
  22   2.0000     -11.206671      -304.9490
  23   2.0000     -11.203819      -304.8714
  24   2.0000     -10.551172      -287.1120
  25   2.0000     -10.536549      -286.7141
  26   2.0000     -10.536507      -286.7129
  27   2.0000      -7.985869      -217.3065
  28   2.0000      -7.980968      -217.1732
  29   2.0000      -7.980952      -217.1727
  30   2.0000      -7.970848      -216.8978
  31   2.0000      -7.970799      -216.8965
  32   2.0000      -7.966169      -216.7705
  33   2.0000      -7.966127      -216.7693
  34   2.0000      -7.966118      -216.7691
  35   2.0000      -7.966072      -216.7678
  36   2.0000      -1.695183       -46.1283
  37   2.0000      -1.590232       -43.2724
  38   2.0000      -1.585629       -43.1472
  39   2.0000      -1.511488       -41.1297
  40   2.0000      -1.401875       -38.1470
  41   2.0000      -1.271393       -34.5964
  42   2.0000      -1.209832       -32.9212
  43   2.0000      -1.182859       -32.1872
  44   2.0000      -1.170263       -31.8445
  45   2.0000      -1.132564       -30.8186
  46   2.0000      -1.128483       -30.7076
  47   2.0000      -1.106856       -30.1191
  48   2.0000      -1.056913       -28.7601
  49   2.0000      -1.033631       -28.1265
  50   2.0000      -1.027976       -27.9726
  51   2.0000      -0.994427       -27.0597
  52   2.0000      -0.935212       -25.4484
  53   2.0000      -0.900109       -24.4932
  54   2.0000      -0.864688       -23.5294
  55   2.0000      -0.855789       -23.2872
  56   2.0000      -0.821582       -22.3564
  57   2.0000      -0.813361       -22.1327
  58   2.0000      -0.795472       -21.6459
  59   2.0000      -0.770521       -20.9669
  60   2.0000      -0.760984       -20.7074
  61   2.0000      -0.758926       -20.6514
  62   2.0000      -0.741722       -20.1833
  63   2.0000      -0.726994       -19.7825
  64   2.0000      -0.707817       -19.2607
  65   2.0000      -0.688420       -18.7329
  66   2.0000      -0.685023       -18.6404
  67   2.0000      -0.652809       -17.7638
  68   2.0000      -0.643049       -17.4983
  69   2.0000      -0.640886       -17.4394
  70   2.0000      -0.635467       -17.2919
  71   2.0000      -0.627618       -17.0783
  72   2.0000      -0.624374       -16.9901
  73   2.0000      -0.614860       -16.7312
  74   2.0000      -0.610324       -16.6078
  75   2.0000      -0.594249       -16.1703
  76   2.0000      -0.593043       -16.1375
  77   2.0000      -0.591746       -16.1022
  78   2.0000      -0.586451       -15.9581
  79   2.0000      -0.582461       -15.8496
  80   2.0000      -0.581928       -15.8351
  81   2.0000      -0.575885       -15.6706
  82   2.0000      -0.565226       -15.3806
  83   2.0000      -0.554844       -15.0981
  84   2.0000      -0.545200       -14.8356
  85   2.0000      -0.530478       -14.4350
  86   2.0000      -0.527238       -14.3469
  87   2.0000      -0.513529       -13.9738
  88   2.0000      -0.481285       -13.0964
  89   2.0000      -0.479345       -13.0436
  90   2.0000      -0.477630       -12.9970
  91   2.0000      -0.470294       -12.7974
  92   2.0000      -0.448224       -12.1968
  93   2.0000      -0.438543       -11.9334
  94   2.0000      -0.425664       -11.5829
  95   2.0000      -0.399555       -10.8724
  96   2.0000      -0.393017       -10.6945
  97   2.0000      -0.378073       -10.2879
  98   2.0000      -0.318571        -8.6687
  99   0.0000       0.113917         3.0998
 100   0.0000       0.116880         3.1805
 101   0.0000       0.120553         3.2804
 102   0.0000       0.202725         5.5164
 103   0.0000       0.216563         5.8930

MULLIKEN ATOMIC CHARGES
-----------------------
   0 Cl:   -0.096867
   1 C :    0.047666
   2 C :    0.121167
   3 N :   -0.275192
   4 C :    0.134891
   5 C :   -0.382227
   6 C :    0.017093
   7 C :    0.784019
   8 F :   -0.293882
   9 F :   -0.299166
  10 F :   -0.285880
  11 N :   -0.267303
  12 C :    0.218297
  13 C :    0.182078
  14 C :   -0.146797
  15 C :   -0.157708
  16 C :    0.229096
  17 Cl:   -0.081815
  18 O :   -0.371471
  19 C :    0.047589
  20 Cl:   -0.097021
  21 C :   -0.120756
  22 C :   -0.118272
  23 C :   -0.120737
  24 H :    0.155634
  25 H :    0.165991
  26 H :    0.154949
  27 H :    0.177619
  28 H :    0.170627
  29 H :    0.171707
  30 H :    0.164956
  31 H :    0.171715
Sum of atomic charges:   -0.0000000

LOEWDIN ATOMIC CHARGES
----------------------
   0 Cl:   -0.062732
   1 C :    0.035204
   2 C :    0.065084
   3 N :   -0.097183
   4 C :    0.094412
   5 C :   -0.245936
   6 C :   -0.057411
   7 C :    0.618308
   8 F :   -0.229028
   9 F :   -0.232850
  10 F :   -0.219152
  11 N :   -0.196669
  12 C :    0.123322
  13 C :    0.122238
  14 C :   -0.109519
  15 C :   -0.128456
  16 C :    0.148178
  17 Cl:   -0.043835
  18 O :   -0.220001
  19 C :    0.035122
  20 Cl:   -0.062870
  21 C :   -0.080477
  22 C :   -0.060753
  23 C :   -0.080455
  24 H :    0.105263
  25 H :    0.112821
  26 H :    0.104733
  27 H :    0.118375
  28 H :    0.113222
  29 H :    0.112070
  30 H :    0.106902
  31 H :    0.112076

  Mayer bond orders larger than 0.100000
B(  0-Cl,  1-C ) :   1.0146 B(  1-C ,  2-C ) :   1.3905 B(  1-C , 21-C ) :   0.1059
B(  1-C , 23-C ) :   1.4209 B(  2-C ,  3-N ) :   0.9788 B(  2-C , 19-C ) :   1.3905
B(  2-C , 22-C ) :   0.1071 B(  3-N ,  4-C ) :   1.1585 B(  3-N , 12-C ) :   1.1027
B(  4-C ,  5-C ) :   1.0216 B(  4-C ,  6-C ) :   1.5789 B(  5-C , 24-H ) :   0.9582
B(  5-C , 25-H ) :   0.9627 B(  5-C , 26-H ) :   0.9584 B(  6-C ,  7-C ) :   0.9467
B(  6-C , 11-N ) :   1.2208 B(  7-C ,  8-F ) :   0.8969 B(  7-C ,  9-F ) :   0.8962
B(  7-C , 10-F ) :   0.9118 B( 11-N , 12-C ) :   1.6140 B( 12-C , 13-C ) :   1.0450
B( 13-C , 14-C ) :   1.6512 B( 13-C , 16-C ) :   0.1113 B( 13-C , 18-O ) :   1.0156
B( 14-C , 15-C ) :   1.2162 B( 14-C , 27-H ) :   0.9550 B( 15-C , 16-C ) :   1.6612
B( 15-C , 28-H ) :   0.9578 B( 16-C , 17-Cl) :   1.0216 B( 16-C , 18-O ) :   1.0308
B( 19-C , 20-Cl) :   1.0146 B( 19-C , 21-C ) :   1.4208 B( 19-C , 23-C ) :   0.1059
B( 21-C , 22-C ) :   1.4447 B( 21-C , 29-H ) :   0.9525 B( 22-C , 23-C ) :   1.4447
B( 22-C , 30-H ) :   0.9538 B( 23-C , 31-H ) :   0.9525

Dispersion correction           -0.193822598
FINAL SINGLE POINT ENERGY     -2419.950446611861

DIPOLE MOMENT
-------------
                                X             Y             Z
Electronic contribution:     10.08581       4.57002      -1.71853
Nuclear contribution   :    -12.20624      -5.83129       2.15641
                        -----------------------------------------
Total Dipole Moment    :     -2.12043      -1.26127       0.43788
                        -----------------------------------------
Magnitude (a.u.)       :      2.50575
Magnitude (Debye)      :      6.36911

Dispersion correction in the Hessian             ... done   (     33.2 sec)

VIBRATIONAL FREQUENCIES
-----------------------

Scaling factor for frequencies =  1.000000000  (already applied!)

   0:         0.00 cm**-1
   1:         0.00 cm**-1
   2:         0.00 cm**-1
   3:         0.00 cm**-1
   4:         0.00 cm**-1
   5:         0.00 cm**-1
   6:        13.52 cm**-1
   7:        19.28 cm**-1
   8:        23.37 cm**-1
   9:        41.81 cm**-1
  10:        47.63 cm**-1
  11:        66.61 cm**-1
  12:        82.70 cm**-1
  13:       101.19 cm**-1
  14:       108.86 cm**-1
  15:       128.87 cm**-1
  16:       144.78 cm**-1
  17:       172.30 cm**-1
  18:       182.28 cm**-1
  19:       231.82 cm**-1
  20:       235.80 cm**-1
  21:       271.29 cm**-1
  22:       283.40 cm**-1
  23:       295.66 cm**-1
  24:       334.98 cm**-1
  25:       344.63 cm**-1
  26:       370.41 cm**-1
  27:       371.70 cm**-1
  28:       414.77 cm**-1
  29:       436.00 cm**-1
  30:       452.57 cm**-1
  31:       470.42 cm**-1
  32:       529.32 cm**-1
  33:       536.82 cm**-1
  34:       563.23 cm**-1
  35:       586.30 cm**-1
  36:       611.04 cm**-1
  37:       617.61 cm**-1
  38:       619.34 cm**-1
  39:       709.85 cm**-1
  40:       720.97 cm**-1
  41:       745.22 cm**-1
  42:       758.00 cm**-1
  43:       796.84 cm**-1
  44:       830.79 cm**-1
  45:       838.39 cm**-1
  46:       853.58 cm**-1
  47:       907.17 cm**-1
  48:       910.54 cm**-1
  49:       954.21 cm**-1
  50:      1007.39 cm**-1
  51:      1044.32 cm**-1
  52:      1078.25 cm**-1
  53:      1094.04 cm**-1
  54:      1110.97 cm**-1
  55:      1126.39 cm**-1
  56:      1135.44 cm**-1
  57:      1136.44 cm**-1
  58:      1159.51 cm**-1
  59:      1193.30 cm**-1
  60:      1205.67 cm**-1
  61:      1215.98 cm**-1
  62:      1232.73 cm**-1
  63:      1286.54 cm**-1
  64:      1295.47 cm**-1
  65:      1307.06 cm**-1
  66:      1317.84 cm**-1
  67:      1338.28 cm**-1
  68:      1369.69 cm**-1
  69:      1383.33 cm**-1
  70:      1419.69 cm**-1
  71:      1426.65 cm**-1
  72:      1452.64 cm**-1
  73:      1517.50 cm**-1
  74:      1524.42 cm**-1
  75:      1553.78 cm**-1
  76:      1601.43 cm**-1
  77:      1635.85 cm**-1
  78:      1641.78 cm**-1
  79:      1680.05 cm**-1
  80:      1702.25 cm**-1
  81:      1705.46 cm**-1
  82:      1733.15 cm**-1
  83:      1775.45 cm**-1
  84:      1807.06 cm**-1
  85:      1817.64 cm**-1
  86:      1833.91 cm**-1
  87:      1870.71 cm**-1
  88:      3536.65 cm**-1
  89:      3651.99 cm**-1
  90:      3678.09 cm**-1
  91:      3680.47 cm**-1
  92:      3691.38 cm**-1
  93:      3701.78 cm**-1
  94:      3722.30 cm**-1
  95:      3739.76 cm**-1

IR SPECTRUM
-----------

 Mode   freq       eps      Int      T**2         TX        TY        TZ
       cm**-1   L/(mol*cm) km/mol    a.u.
----------------------------------------------------------------------------
  6:     13.52   0.000014    0.07  0.000333  ( 0.001506  0.003956  0.017750)
  7:     19.28   0.000008    0.04  0.000129  ( 0.005941 -0.004478 -0.008607)
  8:     23.37   0.000184    0.93  0.002455  (-0.002859 -0.011324 -0.048151)
  9:     41.81   0.000020    0.10  0.000152  (-0.000475 -0.003855 -0.011704)
 10:     47.63   0.000266    1.34  0.001743  ( 0.016114 -0.037726  0.007763)
 11:     66.61   0.000008    0.04  0.000038  ( 0.003570 -0.004037  0.003007)
 12:     82.70   0.000688    3.48  0.002595  ( 0.000674  0.012468  0.049387)
 13:    101.19   0.000141    0.71  0.000435  (-0.012523  0.016538 -0.002170)
 14:    108.86   0.000061    0.31  0.000175  ( 0.006996 -0.007176  0.008642)
 15:    128.87   0.000044    0.22  0.000106  (-0.001996 -0.003671 -0.009385)
 16:    144.78   0.000037    0.19  0.000079  (-0.003913 -0.007947  0.000741)
 17:    172.30   0.000085    0.43  0.000153  (-0.012012 -0.002861 -0.000796)
 18:    182.28   0.000037    0.19  0.000063  (-0.000951  0.003083  0.007245)
 19:    231.82   0.000005    0.03  0.000007  ( 0.000307  0.000456 -0.002570)
 20:    235.80   0.000428    2.16  0.000566  (-0.010805 -0.020375  0.005852)
 21:    271.29   0.000008    0.04  0.000009  (-0.000102  0.000782  0.002847)
 22:    283.40   0.000065    0.33  0.000071  (-0.003611 -0.007417  0.001790)
 23:    295.66   0.000255    1.29  0.000269  (-0.013021 -0.009676  0.002481)
 24:    334.98   0.000032    0.16  0.000030  ( 0.001373 -0.005095  0.001541)
 25:    344.63   0.000044    0.22  0.000040  ( 0.001370  0.001866  0.005886)
 26:    370.41   0.000181    0.91  0.000153  (-0.008552  0.008825 -0.001230)
 27:    371.70   0.000031    0.16  0.000026  ( 0.004854 -0.000598  0.001428)
 28:    414.77   0.000276    1.40  0.000208  (-0.007099  0.012415 -0.001852)
 29:    436.00   0.000344    1.74  0.000246  (-0.000836 -0.002875 -0.015405)
 30:    452.57   0.001721    8.69  0.001186  (-0.021580 -0.025785  0.007472)
 31:    470.42   0.000058    0.29  0.000039  ( 0.003373  0.003493 -0.003868)
 32:    529.32   0.000130    0.66  0.000077  (-0.008524  0.001988 -0.000559)
 33:    536.82   0.000551    2.78  0.000320  (-0.002295 -0.017319  0.003873)
 34:    563.23   0.001086    5.49  0.000602  (-0.002471 -0.006142 -0.023621)
 35:    586.30   0.000215    1.09  0.000115  (-0.009924  0.003842 -0.001136)
 36:    611.04   0.000051    0.26  0.000026  (-0.004614 -0.002024  0.000949)
 37:    617.61   0.000340    1.72  0.000172  (-0.002620 -0.004325 -0.012092)
 38:    619.34   0.000077    0.39  0.000039  ( 0.001123  0.002062  0.005750)
 39:    709.85   0.001390    7.03  0.000611  (-0.009530  0.022272 -0.004936)
 40:    720.97   0.000039    0.20  0.000017  (-0.000282 -0.000824 -0.003999)
 41:    745.22   0.007084   35.80  0.002966  (-0.032701 -0.041959  0.011678)
 42:    758.00   0.000372    1.88  0.000153  (-0.000229  0.001993  0.012204)
 43:    796.84   0.000750    3.79  0.000294  ( 0.009577  0.013669 -0.003920)
 44:    830.79   0.000872    4.41  0.000328  (-0.016619 -0.006896  0.001975)
 45:    838.39   0.000230    1.16  0.000086  (-0.001861 -0.002822 -0.008616)
 46:    853.58   0.000454    2.29  0.000166  ( 0.001439 -0.001823 -0.012669)
 47:    907.17   0.011649   58.87  0.004007  (-0.003677 -0.014627 -0.061480)
 48:    910.54   0.002300   11.62  0.000788  (-0.018396  0.020819 -0.004055)
 49:    954.21   0.005839   29.51  0.001910  (-0.022298  0.036820 -0.007533)
 50:   1007.39   0.006943   35.08  0.002151  ( 0.002635  0.010505  0.045092)
 51:   1044.32   0.010337   52.24  0.003089  (-0.055470  0.000269  0.003446)
 52:   1078.25   0.000119    0.60  0.000034  ( 0.003778  0.004377 -0.000951)
 53:   1094.04   0.000007    0.04  0.000002  ( 0.000165 -0.000363 -0.001352)
 54:   1110.97   0.000001    0.00  0.000000  (-0.000023 -0.000100  0.000450)
 55:   1126.39   0.003783   19.12  0.001048  (-0.030664  0.010354 -0.000721)
 56:   1135.44   0.000347    1.75  0.000095  ( 0.009581 -0.000010 -0.001901)
 57:   1136.44   0.001142    5.77  0.000314  ( 0.001502  0.004036  0.017178)
 58:   1159.51   0.000413    2.09  0.000111  ( 0.004655  0.009108 -0.002544)
 59:   1193.30   0.022189  112.13  0.005803  (-0.044141 -0.059236  0.018586)
 60:   1205.67   0.000162    0.82  0.000042  (-0.006362  0.001148  0.000199)
 61:   1215.98   0.013732   69.39  0.003524  (-0.024755 -0.051736  0.015316)
 62:   1232.73   0.001470    7.43  0.000372  (-0.002703 -0.005356 -0.018336)
 63:   1286.54   0.001313    6.63  0.000318  (-0.006753 -0.015853  0.004633)
 64:   1295.47   0.010545   53.29  0.002540  (-0.017706 -0.045189  0.013593)
 65:   1307.06   0.001188    6.00  0.000284  (-0.001058 -0.003954 -0.016338)
 66:   1317.84   0.001795    9.07  0.000425  ( 0.002803 -0.019890  0.004634)
 67:   1338.28   0.007949   40.17  0.001854  ( 0.027976  0.031131 -0.010089)
 68:   1369.69   0.001882    9.51  0.000429  ( 0.001057  0.004684  0.020144)
 69:   1383.33   0.031780  160.60  0.007169  (-0.011026  0.021081  0.081260)
 70:   1419.69   0.034546  174.58  0.007594  ( 0.083121 -0.021231  0.015292)
 71:   1426.65   0.007647   38.64  0.001673  (-0.001377  0.040609 -0.004656)
 72:   1452.64   0.002794   14.12  0.000600  ( 0.024246 -0.003231 -0.001390)
 73:   1517.50   0.017406   87.97  0.003580  (-0.034148 -0.047576  0.012248)
 74:   1524.42   0.002996   15.14  0.000613  ( 0.000090  0.024208 -0.005211)
 75:   1553.78   0.001985   10.03  0.000399  ( 0.007157 -0.018202  0.004028)
 76:   1601.43   0.004676   23.63  0.000911  (-0.027294 -0.011978  0.004771)
 77:   1635.85   0.000351    1.77  0.000067  ( 0.005093  0.005729 -0.002853)
 78:   1641.78   0.017182   86.83  0.003266  (-0.003284 -0.013153 -0.055516)
 79:   1680.05   0.000529    2.67  0.000098  (-0.009899  0.000373  0.000239)
 80:   1702.25   0.005474   27.66  0.001004  ( 0.017138  0.007410 -0.025591)
 81:   1705.46   0.011054   55.86  0.002023  (-0.034930 -0.027976 -0.004460)
 82:   1733.15   0.029923  151.22  0.005388  ( 0.068903  0.023115 -0.010295)
 83:   1775.45   0.013152   66.46  0.002312  ( 0.019250  0.042649 -0.011054)
 84:   1807.06   0.003496   17.67  0.000604  (-0.001329 -0.005655 -0.023875)
 85:   1817.64   0.002270   11.47  0.000390  ( 0.018035 -0.008004  0.000675)
 86:   1833.91   0.005524   27.92  0.000940  ( 0.029116 -0.009601  0.000254)
 87:   1870.71   0.001947    9.84  0.000325  (-0.014714 -0.009889  0.003242)
 88:   3536.65   0.010326   52.18  0.000911  ( 0.022183 -0.020165  0.003527)
 89:   3651.99   0.008086   40.87  0.000691  (-0.001375 -0.006248 -0.025496)
 90:   3678.09   0.000557    2.81  0.000047  ( 0.006134  0.002951 -0.000941)
 91:   3680.47   0.013724   69.36  0.001164  (-0.017615 -0.028118  0.007925)
 92:   3691.38   0.044152  223.13  0.003733  (-0.003541 -0.013977 -0.059369)
 93:   3701.78   0.056904  287.57  0.004797  ( 0.061080  0.030768 -0.010939)
 94:   3722.30   0.009033   45.65  0.000757  ( 0.023262  0.013954 -0.004637)
 95:   3739.76   0.060726  306.88  0.005067  (-0.065811  0.027026 -0.002408)

--------------------------
THERMOCHEMISTRY AT 298.15K
--------------------------

Temperature         ... 298.15 K
Pressure            ... 1.00 atm
Total Mass          ... 395.59 AMU

Throughout the following assumptions are being made:
  (1) The electronic state is orbitally nondegenerate
  (2) There are no thermally accessible electronically excited states
  (3) Hindered rotations indicated by low frequency modes are not
      treated as such but are treated as vibrations and this may
      cause some error
  (4) All equations used are the standard statistical mechanics
      equations for an ideal gas
  (5) All vibrations are strictly harmonic

freq.      13.52  E(vib)   ...       0.57
freq.      19.28  E(vib)   ...       0.57
freq.      23.37  E(vib)   ...       0.56
freq.      41.81  E(vib)   ...       0.53
freq.      47.63  E(vib)   ...       0.53
freq.      66.61  E(vib)   ...       0.50
freq.      82.70  E(vib)   ...       0.48
freq.     101.19  E(vib)   ...       0.46
freq.     108.86  E(vib)   ...       0.45
freq.     128.87  E(vib)   ...       0.43
freq.     144.78  E(vib)   ...       0.41
freq.     172.30  E(vib)   ...       0.38
freq.     182.28  E(vib)   ...       0.37
freq.     231.82  E(vib)   ...       0.32
freq.     235.80  E(vib)   ...       0.32
freq.     271.29  E(vib)   ...       0.29
freq.     283.40  E(vib)   ...       0.28
freq.     295.66  E(vib)   ...       0.27
freq.     334.98  E(vib)   ...       0.24
freq.     344.63  E(vib)   ...       0.23
freq.     370.41  E(vib)   ...       0.21
freq.     371.70  E(vib)   ...       0.21
freq.     414.77  E(vib)   ...       0.19
freq.     436.00  E(vib)   ...       0.17
freq.     452.57  E(vib)   ...       0.16
freq.     470.42  E(vib)   ...       0.15
freq.     529.32  E(vib)   ...       0.13
freq.     536.82  E(vib)   ...       0.12
freq.     563.23  E(vib)   ...       0.11
freq.     586.30  E(vib)   ...       0.11
freq.     611.04  E(vib)   ...       0.10
freq.     617.61  E(vib)   ...       0.09
freq.     619.34  E(vib)   ...       0.09
freq.     709.85  E(vib)   ...       0.07
freq.     720.97  E(vib)   ...       0.07
freq.     745.22  E(vib)   ...       0.06
freq.     758.00  E(vib)   ...       0.06
freq.     796.84  E(vib)   ...       0.05
freq.     830.79  E(vib)   ...       0.04
freq.     838.39  E(vib)   ...       0.04
freq.     853.58  E(vib)   ...       0.04
freq.     907.17  E(vib)   ...       0.03
freq.     910.54  E(vib)   ...       0.03
freq.     954.21  E(vib)   ...       0.03
freq.    1007.39  E(vib)   ...       0.02
freq.    1044.32  E(vib)   ...       0.02
freq.    1078.25  E(vib)   ...       0.02
freq.    1094.04  E(vib)   ...       0.02
freq.    1110.97  E(vib)   ...       0.01
freq.    1126.39  E(vib)   ...       0.01
freq.    1135.44  E(vib)   ...       0.01
freq.    1136.44  E(vib)   ...       0.01
freq.    1159.51  E(vib)   ...       0.01
freq.    1193.30  E(vib)   ...       0.01
freq.    1205.67  E(vib)   ...       0.01
freq.    1215.98  E(vib)   ...       0.01
freq.    1232.73  E(vib)   ...       0.01
freq.    1286.54  E(vib)   ...       0.01
freq.    1295.47  E(vib)   ...       0.01
freq.    1307.06  E(vib)   ...       0.01
freq.    1317.84  E(vib)   ...       0.01
freq.    1338.28  E(vib)   ...       0.01
freq.    1369.69  E(vib)   ...       0.01
freq.    1383.33  E(vib)   ...       0.00
freq.    1419.69  E(vib)   ...       0.00
freq.    1426.65  E(vib)   ...       0.00
freq.    1452.64  E(vib)   ...       0.00
freq.    1517.50  E(vib)   ...       0.00
freq.    1524.42  E(vib)   ...       0.00
freq.    1553.78  E(vib)   ...       0.00
freq.    1601.43  E(vib)   ...       0.00
freq.    1635.85  E(vib)   ...       0.00
freq.    1641.78  E(vib)   ...       0.00
freq.    1680.05  E(vib)   ...       0.00
freq.    1702.25  E(vib)   ...       0.00
freq.    1705.46  E(vib)   ...       0.00
freq.    1733.15  E(vib)   ...       0.00
freq.    1775.45  E(vib)   ...       0.00
freq.    1807.06  E(vib)   ...       0.00
freq.    1817.64  E(vib)   ...       0.00
freq.    1833.91  E(vib)   ...       0.00
freq.    1870.71  E(vib)   ...       0.00
freq.    3536.65  E(vib)   ...       0.00
freq.    3651.99  E(vib)   ...       0.00
freq.    3678.09  E(vib)   ...       0.00
freq.    3680.47  E(vib)   ...       0.00
freq.    3691.38  E(vib)   ...       0.00
freq.    3701.78  E(vib)   ...       0.00
freq.    3722.30  E(vib)   ...       0.00
freq.    3739.76  E(vib)   ...       0.00

------------
INNER ENERGY
------------

The inner energy is: U= E(el) + E(ZPE) + E(vib) + E(rot) + E(trans)
    E(el)   - is the total energy from the electronic structure calculation
              = E(kin-el) + E(nuc-el) + E(el-el) + E(nuc-nuc)
    E(ZPE)  - the the zero temperature vibrational energy from the frequency calculation
    E(vib)  - the the finite temperature correction to E(ZPE) due to population
              of excited vibrational states
    E(rot)  - is the rotational thermal energy
    E(trans)- is the translational thermal energy

Summary of contributions to the inner energy U:
Electronic energy                ...  -2419.95044661 Eh
Zero point energy                ...      0.23209152 Eh     145.64 kcal/mol
Thermal vibrational correction   ...      0.01724625 Eh      10.82 kcal/mol
Thermal rotational correction    ...      0.00141627 Eh       0.89 kcal/mol
Thermal translational correction ...      0.00141627 Eh       0.89 kcal/mol
-----------------------------------------------------------------------
Total thermal energy                  -2419.69827631 Eh

Summary of corrections to the electronic energy:
(perhaps to be used in another calculation)
Total thermal correction                  0.02007879 Eh      12.60 kcal/mol
Non-thermal (ZPE) correction              0.23209152 Eh     145.64 kcal/mol
-----------------------------------------------------------------------
Total correction                          0.25217030 Eh     158.24 kcal/mol

--------
ENTHALPY
--------

The enthalpy is H = U + kB*T
                kB is Boltzmann's constant
Total free energy                 ...  -2419.69827631 Eh
Thermal Enthalpy correction       ...      0.00094421 Eh       0.59 kcal/mol
-----------------------------------------------------------------------
Total Enthalpy                    ...  -2419.69733210 Eh

Note: Only C1 symmetry has been detected, increase convergence thresholds
      if your molecule has a higher symmetry. Symmetry factor of 1.0 is
      used for the rotational entropy correction.

Note: Rotational entropy computed according to Herzberg
Infrared and Raman Spectra, Chapter V,1, Van Nostrand Reinhold, 1945
Point Group:  C1, Symmetry Number:   1
Rotational constants in cm-1:     0.009173     0.004715     0.004094

                             ****ORCA TERMINATED NORMALLY****
TOTAL RUN TIME: 0 days 0 hours 20 minutes 23 seconds 954 msec
