                         Program Version 5.0.4 -  RELEASE  -
|  1>
|  2> !HF-3c FREQ
|  3> * XYZ 0 1
|  4> Cl          0.64143687   -1.98428428   -2.67462635
|  5>  C          2.32919550   -2.03789139   -2.18766832
|  6>  C          2.85948110   -1.32730091   -1.06907797
|  7>  N          2.41419101   -0.02084908   -0.67795807
|  8>  C          2.83707380    0.75446409    0.42789462
|  9>  C          4.20150137    0.81485742    1.10990560
| 10>  C          1.92761052    1.75508392    0.54139173
| 11>  C          1.92534947    2.91996121    1.56235254
| 12>  F          2.26553559    2.49665952    2.80199051
| 13>  F          2.81165671    3.89133000    1.23033106
| 14>  F          0.71035689    3.49270701    1.64246988
| 15>  N          1.04970300    1.75356507   -0.53116482
| 16>  C          1.37232804    0.74889785   -1.27910495
| 17>  C          0.99773800    0.76721507   -2.71417165
| 18>  C          1.76562095    0.80258775   -3.82748127
| 19>  C          0.85709083    0.95972145   -4.94735527
| 20>  C         -0.38156351    1.02045047   -4.40403461
| 21> Cl         -1.94602358    1.20985699   -5.11557055
| 22>  O         -0.31287792    0.91482610   -3.04983258
| 23>  C          3.84957266   -2.06740141   -0.36261263
| 24> Cl          4.01030111   -2.05157375    1.38766897
| 25>  C          4.57218456   -3.08334517   -0.98457319
| 26>  C          4.24904871   -3.50594044   -2.26078677
| 27>  C          3.05791664   -3.05221772   -2.80165100
| 28>  H          4.95322418    0.26999792    0.55212969
| 29>  H          4.49279404    1.86391771    1.12390947
| 30>  H          4.18092680    0.46232587    2.13657308
| 31>  H          2.83812976    0.72154659   -3.88013029
| 32>  H          1.11484623    1.02145767   -5.99218512
| 33>  H          5.35734177   -3.57322526   -0.42414057
| 34>  H          4.82773924   -4.27324820   -2.75613856
| 35>  H          2.64241910   -3.51929235   -3.68482184
| 36> *
| 37>
| 38>                          ****END OF INPUT****

CARTESIAN COORDINATES (ANGSTROEM)
---------------------------------
  Cl     0.641437   -1.984284   -2.674626
  C      2.329195   -2.037891   -2.187668
  C      2.859481   -1.327301   -1.069078
  N      2.414191   -0.020849   -0.677958
  C      2.837074    0.754464    0.427895
  C      4.201501    0.814857    1.109906
  C      1.927611    1.755084    0.541392
  C      1.925349    2.919961    1.562353
  F      2.265536    2.496660    2.801991
  F      2.811657    3.891330    1.230331
  F      0.710357    3.492707    1.642470
  N      1.049703    1.753565   -0.531165
  C      1.372328    0.748898   -1.279105
  C      0.997738    0.767215   -2.714172
  C      1.765621    0.802588   -3.827481
  C      0.857091    0.959721   -4.947355
  C     -0.381564    1.020450   -4.404035
  Cl    -1.946024    1.209857   -5.115571
  O     -0.312878    0.914826   -3.049833
  C      3.849573   -2.067401   -0.362613
  Cl     4.010301   -2.051574    1.387669
  C      4.572185   -3.083345   -0.984573
  C      4.249049   -3.505940   -2.260787
  C      3.057917   -3.052218   -2.801651
  H      4.953224    0.269998    0.552130
  H      4.492794    1.863918    1.123909
  H      4.180927    0.462326    2.136573
  H      2.838130    0.721547   -3.880130
  H      1.114846    1.021458   -5.992185
  H      5.357342   -3.573225   -0.424141
  H      4.827739   -4.273248   -2.756139
  H      2.642419   -3.519292   -3.684822

 Total Charge           Charge          ....    0
 Multiplicity           Mult            ....    1
 Number of Electrons    NEL             ....  198
 Basis Dimension        Dim             ....  155

ORBITAL ENERGIES
----------------

  NO   OCC          E(Eh)            E(eV)
   0   2.0000    -104.123091     -2833.3333
   1   2.0000    -104.103468     -2832.7994
   2   2.0000    -104.101271     -2832.7396
   3   2.0000     -26.043389      -708.6766
   4   2.0000     -26.039273      -708.5646
   5   2.0000     -26.036379      -708.4859
   6   2.0000     -20.472474      -557.0843
   7   2.0000     -15.561543      -423.4511
   8   2.0000     -15.460352      -420.6976
   9   2.0000     -11.517510      -313.4074
  10   2.0000     -11.325167      -308.1735
  11   2.0000     -11.323469      -308.1273
  12   2.0000     -11.301329      -307.5248
  13   2.0000     -11.293322      -307.3069
  14   2.0000     -11.293110      -307.3011
  15   2.0000     -11.292023      -307.2716
  16   2.0000     -11.280268      -306.9517
  17   2.0000     -11.240499      -305.8695
  18   2.0000     -11.234653      -305.7104
  19   2.0000     -11.233913      -305.6903
  20   2.0000     -11.229766      -305.5775
  21   2.0000     -11.208201      -304.9906
  22   2.0000     -11.207783      -304.9793
  23   2.0000     -11.203870      -304.8728
  24   2.0000     -10.544796      -286.9385
  25   2.0000     -10.531014      -286.5635
  26   2.0000     -10.527926      -286.4794
  27   2.0000      -7.979532      -217.1341
  28   2.0000      -7.974588      -216.9996
  29   2.0000      -7.974587      -216.9995
  30   2.0000      -7.965075      -216.7407
  31   2.0000      -7.962032      -216.6579
  32   2.0000      -7.960543      -216.6174
  33   2.0000      -7.960429      -216.6143
  34   2.0000      -7.957491      -216.5343
  35   2.0000      -7.957357      -216.5307
  36   2.0000      -1.702990       -46.3407
  37   2.0000      -1.597150       -43.4607
  38   2.0000      -1.594731       -43.3948
  39   2.0000      -1.506396       -40.9911
  40   2.0000      -1.399860       -38.0921
  41   2.0000      -1.271062       -34.5873
  42   2.0000      -1.215266       -33.0691
  43   2.0000      -1.181252       -32.1435
  44   2.0000      -1.163653       -31.6646
  45   2.0000      -1.133675       -30.8489
  46   2.0000      -1.127094       -30.6698
  47   2.0000      -1.114414       -30.3247
  48   2.0000      -1.060744       -28.8643
  49   2.0000      -1.028516       -27.9874
  50   2.0000      -1.026458       -27.9313
  51   2.0000      -0.996253       -27.1094
  52   2.0000      -0.940579       -25.5945
  53   2.0000      -0.899550       -24.4780
  54   2.0000      -0.864656       -23.5285
  55   2.0000      -0.850347       -23.1391
  56   2.0000      -0.827268       -22.5111
  57   2.0000      -0.818521       -22.2731
  58   2.0000      -0.784999       -21.3609
  59   2.0000      -0.772566       -21.0226
  60   2.0000      -0.768742       -20.9185
  61   2.0000      -0.764867       -20.8131
  62   2.0000      -0.748644       -20.3716
  63   2.0000      -0.717545       -19.5254
  64   2.0000      -0.699386       -19.0313
  65   2.0000      -0.689185       -18.7537
  66   2.0000      -0.684688       -18.6313
  67   2.0000      -0.675411       -18.3789
  68   2.0000      -0.647365       -17.6157
  69   2.0000      -0.647105       -17.6086
  70   2.0000      -0.640953       -17.4412
  71   2.0000      -0.628879       -17.1127
  72   2.0000      -0.621460       -16.9108
  73   2.0000      -0.616562       -16.7775
  74   2.0000      -0.611022       -16.6268
  75   2.0000      -0.600771       -16.3478
  76   2.0000      -0.597803       -16.2670
  77   2.0000      -0.596681       -16.2365
  78   2.0000      -0.589832       -16.0501
  79   2.0000      -0.588675       -16.0187
  80   2.0000      -0.586328       -15.9548
  81   2.0000      -0.580397       -15.7934
  82   2.0000      -0.562490       -15.3061
  83   2.0000      -0.553751       -15.0683
  84   2.0000      -0.546189       -14.8625
  85   2.0000      -0.532925       -14.5016
  86   2.0000      -0.520178       -14.1548
  87   2.0000      -0.505942       -13.7674
  88   2.0000      -0.484349       -13.1798
  89   2.0000      -0.477351       -12.9894
  90   2.0000      -0.472379       -12.8541
  91   2.0000      -0.468048       -12.7362
  92   2.0000      -0.466302       -12.6887
  93   2.0000      -0.451155       -12.2765
  94   2.0000      -0.427229       -11.6255
  95   2.0000      -0.385795       -10.4980
  96   2.0000      -0.370067       -10.0700
  97   2.0000      -0.355174        -9.6648
  98   2.0000      -0.331305        -9.0153
  99   0.0000       0.058140         1.5821
 100   0.0000       0.122095         3.3224
 101   0.0000       0.141258         3.8438
 102   0.0000       0.188089         5.1181
 103   0.0000       0.219911         5.9841

MULLIKEN ATOMIC CHARGES
-----------------------
   0 Cl:   -0.086371
   1 C :    0.024516
   2 C :    0.137004
   3 N :   -0.273211
   4 C :    0.127446
   5 C :   -0.367382
   6 C :    0.023781
   7 C :    0.784997
   8 F :   -0.295516
   9 F :   -0.295078
  10 F :   -0.281002
  11 N :   -0.244757
  12 C :    0.214713
  13 C :    0.200648
  14 C :   -0.163477
  15 C :   -0.159460
  16 C :    0.232140
  17 Cl:   -0.076404
  18 O :   -0.352534
  19 C :    0.020553
  20 Cl:   -0.100214
  21 C :   -0.119567
  22 C :   -0.137260
  23 C :   -0.118803
  24 H :    0.152079
  25 H :    0.157076
  26 H :    0.167702
  27 H :    0.158127
  28 H :    0.167597
  29 H :    0.169943
  30 H :    0.161779
  31 H :    0.170934
Sum of atomic charges:   -0.0000000

LOEWDIN ATOMIC CHARGES
----------------------
   0 Cl:   -0.053242
   1 C :    0.007803
   2 C :    0.093666
   3 N :   -0.103257
   4 C :    0.091542
   5 C :   -0.232912
   6 C :   -0.048375
   7 C :    0.617980
   8 F :   -0.229814
   9 F :   -0.230341
  10 F :   -0.213847
  11 N :   -0.169204
  12 C :    0.122320
  13 C :    0.138535
  14 C :   -0.130081
  15 C :   -0.131950
  16 C :    0.151403
  17 Cl:   -0.039085
  18 O :   -0.202874
  19 C :    0.003843
  20 Cl:   -0.066625
  21 C :   -0.078954
  22 C :   -0.082795
  23 C :   -0.077931
  24 H :    0.102125
  25 H :    0.105600
  26 H :    0.114058
  27 H :    0.103805
  28 H :    0.110983
  29 H :    0.111097
  30 H :    0.104699
  31 H :    0.111827

  Mayer bond orders larger than 0.100000
B(  0-Cl,  1-C ) :   1.0103 B(  1-C ,  2-C ) :   1.3558 B(  1-C , 21-C ) :   0.1024
B(  1-C , 23-C ) :   1.4386 B(  2-C ,  3-N ) :   1.0341 B(  2-C , 19-C ) :   1.3649
B(  2-C , 22-C ) :   0.1052 B(  3-N ,  4-C ) :   1.1206 B(  3-N , 12-C ) :   1.0611
B(  4-C ,  5-C ) :   1.0138 B(  4-C ,  6-C ) :   1.6257 B(  5-C , 24-H ) :   0.9658
B(  5-C , 25-H ) :   0.9579 B(  5-C , 26-H ) :   0.9546 B(  6-C ,  7-C ) :   0.9439
B(  6-C , 11-N ) :   1.1869 B(  7-C ,  8-F ) :   0.8990 B(  7-C ,  9-F ) :   0.8944
B(  7-C , 10-F ) :   0.9178 B( 11-N , 12-C ) :   1.6720 B( 12-C , 13-C ) :   1.0183
B( 13-C , 14-C ) :   1.6636 B( 13-C , 16-C ) :   0.1134 B( 13-C , 18-O ) :   1.0273
B( 14-C , 15-C ) :   1.2133 B( 14-C , 27-H ) :   0.9613 B( 15-C , 16-C ) :   1.6611
B( 15-C , 28-H ) :   0.9588 B( 16-C , 17-Cl) :   1.0239 B( 16-C , 18-O ) :   1.0373
B( 19-C , 20-Cl) :   1.0067 B( 19-C , 21-C ) :   1.4274 B( 19-C , 23-C ) :   0.1012
B( 21-C , 22-C ) :   1.4442 B( 21-C , 29-H ) :   0.9507 B( 22-C , 23-C ) :   1.4338
B( 22-C , 30-H ) :   0.9550 B( 23-C , 31-H ) :   0.9504

Dispersion correction           -0.198300342
FINAL SINGLE POINT ENERGY     -2419.848367605477

DIPOLE MOMENT
-------------
                                X             Y             Z
Electronic contribution:    -15.91901      10.15108       6.82900
Nuclear contribution   :     18.23308     -12.04975      -7.96851
                        -----------------------------------------
Total Dipole Moment    :      2.31407      -1.89868      -1.13951
                        -----------------------------------------
Magnitude (a.u.)       :      3.20287
Magnitude (Debye)      :      8.14105

Dispersion correction in the Hessian             ... done   (      9.0 sec)

VIBRATIONAL FREQUENCIES
-----------------------

Scaling factor for frequencies =  1.000000000  (already applied!)

   0:         0.00 cm**-1
   1:         0.00 cm**-1
   2:         0.00 cm**-1
   3:         0.00 cm**-1
   4:         0.00 cm**-1
   5:         0.00 cm**-1
   6:       -45.10 cm**-1 ***imaginary mode***
   7:        28.84 cm**-1
   8:        38.43 cm**-1
   9:        47.52 cm**-1
  10:        62.84 cm**-1
  11:        80.85 cm**-1
  12:       118.21 cm**-1
  13:       124.34 cm**-1
  14:       155.48 cm**-1
  15:       170.26 cm**-1
  16:       198.51 cm**-1
  17:       205.53 cm**-1
  18:       231.72 cm**-1
  19:       237.66 cm**-1
  20:       253.31 cm**-1
  21:       296.79 cm**-1
  22:       314.00 cm**-1
  23:       334.59 cm**-1
  24:       374.36 cm**-1
  25:       380.81 cm**-1
  26:       390.52 cm**-1
  27:       398.21 cm**-1
  28:       415.28 cm**-1
  29:       463.51 cm**-1
  30:       472.68 cm**-1
  31:       478.96 cm**-1
  32:       489.61 cm**-1
  33:       532.46 cm**-1
  34:       554.48 cm**-1
  35:       568.77 cm**-1
  36:       580.92 cm**-1
  37:       612.83 cm**-1
  38:       645.77 cm**-1
  39:       686.62 cm**-1
  40:       724.74 cm**-1
  41:       742.13 cm**-1
  42:       800.21 cm**-1
  43:       801.50 cm**-1
  44:       827.51 cm**-1
  45:       835.85 cm**-1
  46:       851.64 cm**-1
  47:       866.49 cm**-1
  48:       886.43 cm**-1
  49:       942.51 cm**-1
  50:       981.74 cm**-1
  51:      1000.73 cm**-1
  52:      1048.45 cm**-1
  53:      1067.85 cm**-1
  54:      1088.12 cm**-1
  55:      1113.42 cm**-1
  56:      1133.23 cm**-1
  57:      1138.50 cm**-1
  58:      1190.32 cm**-1
  59:      1194.25 cm**-1
  60:      1202.12 cm**-1
  61:      1230.34 cm**-1
  62:      1237.84 cm**-1
  63:      1270.55 cm**-1
  64:      1271.12 cm**-1
  65:      1290.96 cm**-1
  66:      1316.00 cm**-1
  67:      1324.76 cm**-1
  68:      1370.01 cm**-1
  69:      1380.23 cm**-1
  70:      1414.77 cm**-1
  71:      1422.90 cm**-1
  72:      1443.21 cm**-1
  73:      1479.88 cm**-1
  74:      1503.43 cm**-1
  75:      1554.59 cm**-1
  76:      1579.64 cm**-1
  77:      1626.51 cm**-1
  78:      1634.34 cm**-1
  79:      1643.58 cm**-1
  80:      1667.01 cm**-1
  81:      1720.27 cm**-1
  82:      1739.35 cm**-1
  83:      1757.71 cm**-1
  84:      1766.19 cm**-1
  85:      1806.54 cm**-1
  86:      1817.75 cm**-1
  87:      1864.78 cm**-1
  88:      3553.56 cm**-1
  89:      3665.21 cm**-1
  90:      3679.91 cm**-1
  91:      3687.15 cm**-1
  92:      3706.01 cm**-1
  93:      3709.04 cm**-1
  94:      3731.35 cm**-1
  95:      3747.32 cm**-1

IR SPECTRUM
-----------

 Mode   freq       eps      Int      T**2         TX        TY        TZ
       cm**-1   L/(mol*cm) km/mol    a.u.
----------------------------------------------------------------------------
  7:     28.84   0.000006    0.03  0.000060  (-0.005643  0.005278  0.000618)
  8:     38.43   0.000019    0.10  0.000158  (-0.009242  0.007090 -0.004745)
  9:     47.52   0.000080    0.41  0.000527  (-0.003244 -0.011705  0.019485)
 10:     62.84   0.000033    0.16  0.000162  ( 0.007756  0.010028 -0.000987)
 11:     80.85   0.000062    0.31  0.000240  ( 0.001895  0.005582  0.014319)
 12:    118.21   0.000125    0.63  0.000331  (-0.011912  0.012958  0.004594)
 13:    124.34   0.000312    1.57  0.000782  (-0.015140 -0.022269  0.007538)
 14:    155.48   0.000137    0.69  0.000275  ( 0.009262 -0.013676  0.001431)
 15:    170.26   0.000062    0.31  0.000113  ( 0.003873  0.008155  0.005608)
 16:    198.51   0.000182    0.92  0.000286  ( 0.001112  0.007891 -0.014900)
 17:    205.53   0.000042    0.21  0.000064  (-0.003767  0.007066  0.000124)
 18:    231.72   0.000010    0.05  0.000013  ( 0.002264  0.002886 -0.000196)
 19:    237.66   0.000206    1.04  0.000271  (-0.002694 -0.010075 -0.012743)
 20:    253.31   0.000329    1.66  0.000405  ( 0.006622 -0.014145  0.012697)
 21:    296.79   0.000917    4.63  0.000964  ( 0.005510 -0.028621 -0.010691)
 22:    314.00   0.000070    0.35  0.000070  ( 0.004280 -0.000629 -0.007136)
 23:    334.59   0.000073    0.37  0.000068  ( 0.006000  0.005385 -0.001870)
 24:    374.36   0.000078    0.39  0.000065  ( 0.005944 -0.005097  0.001922)
 25:    380.81   0.000202    1.02  0.000166  (-0.006816 -0.008534 -0.006804)
 26:    390.52   0.000261    1.32  0.000209  (-0.008950  0.008938 -0.006993)
 27:    398.21   0.000106    0.54  0.000083  (-0.006121  0.002692 -0.006194)
 28:    415.28   0.000284    1.44  0.000213  ( 0.006684  0.009556  0.008798)
 29:    463.51   0.000212    1.07  0.000143  ( 0.009677 -0.000465  0.006994)
 30:    472.68   0.000314    1.59  0.000207  ( 0.000281 -0.012504 -0.007135)
 31:    478.96   0.000908    4.59  0.000591  ( 0.011680 -0.019386 -0.008895)
 32:    489.61   0.000707    3.57  0.000451  (-0.016989 -0.008513 -0.009457)
 33:    532.46   0.000525    2.66  0.000308  (-0.008137 -0.005018 -0.014717)
 34:    554.48   0.000681    3.44  0.000383  (-0.019399  0.000818  0.002474)
 35:    568.77   0.001162    5.87  0.000637  ( 0.001493 -0.023239  0.009750)
 36:    580.92   0.001210    6.11  0.000650  ( 0.001359  0.015558 -0.020150)
 37:    612.83   0.002587   13.07  0.001317  (-0.019807  0.006369 -0.029742)
 38:    645.77   0.000519    2.62  0.000251  (-0.004676  0.014908 -0.002556)
 39:    686.62   0.000738    3.73  0.000335  (-0.002693 -0.012470 -0.013136)
 40:    724.74   0.000123    0.62  0.000053  ( 0.002318 -0.006910 -0.000121)
 41:    742.13   0.006923   34.99  0.002911  (-0.015755  0.029457  0.042370)
 42:    800.21   0.000333    1.68  0.000130  (-0.008911  0.003445  0.006221)
 43:    801.50   0.000703    3.55  0.000274  ( 0.002193 -0.016186  0.002611)
 44:    827.51   0.003093   15.63  0.001166  ( 0.001799  0.033650 -0.005546)
 45:    835.85   0.002835   14.32  0.001058  ( 0.010761 -0.028857 -0.010477)
 46:    851.64   0.003647   18.43  0.001336  (-0.015696 -0.006623 -0.032343)
 47:    866.49   0.004928   24.90  0.001775  ( 0.006807  0.035065 -0.022336)
 48:    886.43   0.003465   17.51  0.001220  (-0.025328 -0.008906 -0.022335)
 49:    942.51   0.007060   35.68  0.002337  (-0.025247 -0.034224  0.022994)
 50:    981.74   0.001141    5.77  0.000363  ( 0.012900 -0.003432  0.013583)
 51:   1000.73   0.008532   43.12  0.002661  ( 0.003903  0.051226  0.004615)
 52:   1048.45   0.002977   15.05  0.000886  (-0.022044 -0.014164  0.014129)
 53:   1067.85   0.007183   36.30  0.002099  ( 0.033529 -0.030650 -0.005952)
 54:   1088.12   0.000012    0.06  0.000003  ( 0.001146  0.000674  0.001312)
 55:   1113.42   0.001503    7.60  0.000421  (-0.007660 -0.013711 -0.013213)
 56:   1133.23   0.006413   32.41  0.001766  ( 0.021963 -0.018450 -0.030711)
 57:   1138.50   0.004571   23.10  0.001253  (-0.004517 -0.030813 -0.016821)
 58:   1190.32   0.009173   46.36  0.002405  (-0.000126 -0.027644 -0.040505)
 59:   1194.25   0.007643   38.62  0.001997  (-0.002136  0.017634  0.041007)
 60:   1202.12   0.001257    6.35  0.000326  (-0.014605  0.007470 -0.007563)
 61:   1230.34   0.001809    9.14  0.000459  (-0.014716 -0.010984 -0.011024)
 62:   1237.84   0.001821    9.20  0.000459  ( 0.004676  0.002613  0.020745)
 63:   1270.55   0.028914  146.12  0.007102  ( 0.021743 -0.078053 -0.023168)
 64:   1271.12   0.006468   32.69  0.001588  ( 0.032474  0.017776  0.014741)
 65:   1290.96   0.002480   12.53  0.000599  (-0.007612  0.018413  0.014227)
 66:   1316.00   0.005544   28.02  0.001315  ( 0.004144  0.032443  0.015650)
 67:   1324.76   0.025045  126.57  0.005900  ( 0.001183  0.057679  0.050709)
 68:   1370.01   0.002442   12.34  0.000556  ( 0.002566 -0.015551  0.017547)
 69:   1380.23   0.032768  165.59  0.007409  ( 0.037901  0.050221 -0.058737)
 70:   1414.77   0.010083   50.96  0.002224  ( 0.024629 -0.025138  0.031396)
 71:   1422.90   0.038295  193.53  0.008399  (-0.069751  0.059202 -0.005355)
 72:   1443.21   0.001077    5.44  0.000233  (-0.014026  0.001881  0.005704)
 73:   1479.88   0.007575   38.28  0.001597  ( 0.027172  0.019312  0.022046)
 74:   1503.43   0.005593   28.27  0.001161  (-0.002728  0.031818 -0.011879)
 75:   1554.59   0.001851    9.35  0.000372  ( 0.008410 -0.016974  0.003561)
 76:   1579.64   0.009326   47.13  0.001842  ( 0.010706  0.034497  0.023186)
 77:   1626.51   0.010592   53.53  0.002032  ( 0.021305  0.009007  0.038694)
 78:   1634.34   0.001082    5.47  0.000207  ( 0.014291 -0.001418  0.000601)
 79:   1643.58   0.102517  518.08  0.019465  ( 0.059787 -0.120778 -0.036093)
 80:   1667.01   0.003393   17.15  0.000635  ( 0.023379  0.000214 -0.009409)
 81:   1720.27   0.003154   15.94  0.000572  ( 0.001488 -0.022159 -0.008886)
 82:   1739.35   0.002820   14.25  0.000506  ( 0.003255  0.011792 -0.018874)
 83:   1757.71   0.011003   55.61  0.001954  ( 0.035211 -0.003842  0.026438)
 84:   1766.19   0.002083   10.53  0.000368  ( 0.013000  0.004775  0.013276)
 85:   1806.54   0.003120   15.77  0.000539  ( 0.004521  0.020778 -0.009314)
 86:   1817.75   0.009765   49.35  0.001676  ( 0.029944 -0.027900 -0.001134)
 87:   1864.78   0.000608    3.07  0.000102  ( 0.004865  0.004825  0.007407)
 88:   3553.56   0.011143   56.31  0.000979  ( 0.022729  0.007780  0.020036)
 89:   3665.21   0.009674   48.89  0.000824  (-0.001359 -0.024930  0.014155)
 90:   3679.91   0.001239    6.26  0.000105  (-0.001935  0.009466  0.003429)
 91:   3687.15   0.040651  205.43  0.003441  (-0.037212  0.000222 -0.045340)
 92:   3706.01   0.011301   57.11  0.000952  (-0.013288  0.010287  0.025868)
 93:   3709.04   0.058512  295.69  0.004923  ( 0.036752 -0.053640 -0.026361)
 94:   3731.35   0.007164   36.20  0.000599  ( 0.006189 -0.001507  0.023634)
 95:   3747.32   0.046392  234.45  0.003863  ( 0.042790  0.002091 -0.045034)

--------------------------
THERMOCHEMISTRY AT 298.15K
--------------------------

Temperature         ... 298.15 K
Pressure            ... 1.00 atm
Total Mass          ... 395.59 AMU

Throughout the following assumptions are being made:
  (1) The electronic state is orbitally nondegenerate
  (2) There are no thermally accessible electronically excited states
  (3) Hindered rotations indicated by low frequency modes are not
      treated as such but are treated as vibrations and this may
      cause some error
  (4) All equations used are the standard statistical mechanics
      equations for an ideal gas
  (5) All vibrations are strictly harmonic

freq.      28.84  E(vib)   ...       0.55
freq.      38.43  E(vib)   ...       0.54
freq.      47.52  E(vib)   ...       0.53
freq.      62.84  E(vib)   ...       0.51
freq.      80.85  E(vib)   ...       0.48
freq.     118.21  E(vib)   ...       0.44
freq.     124.34  E(vib)   ...       0.43
freq.     155.48  E(vib)   ...       0.40
freq.     170.26  E(vib)   ...       0.38
freq.     198.51  E(vib)   ...       0.35
freq.     205.53  E(vib)   ...       0.35
freq.     231.72  E(vib)   ...       0.32
freq.     237.66  E(vib)   ...       0.32
freq.     253.31  E(vib)   ...       0.30
freq.     296.79  E(vib)   ...       0.27
freq.     314.00  E(vib)   ...       0.25
freq.     334.59  E(vib)   ...       0.24
freq.     374.36  E(vib)   ...       0.21
freq.     380.81  E(vib)   ...       0.21
freq.     390.52  E(vib)   ...       0.20
freq.     398.21  E(vib)   ...       0.20
freq.     415.28  E(vib)   ...       0.18
freq.     463.51  E(vib)   ...       0.16
freq.     472.68  E(vib)   ...       0.15
freq.     478.96  E(vib)   ...       0.15
freq.     489.61  E(vib)   ...       0.15
freq.     532.46  E(vib)   ...       0.13
freq.     554.48  E(vib)   ...       0.12
freq.     568.77  E(vib)   ...       0.11
freq.     580.92  E(vib)   ...       0.11
freq.     612.83  E(vib)   ...       0.10
freq.     645.77  E(vib)   ...       0.09
freq.     686.62  E(vib)   ...       0.07
freq.     724.74  E(vib)   ...       0.06
freq.     742.13  E(vib)   ...       0.06
freq.     800.21  E(vib)   ...       0.05
freq.     801.50  E(vib)   ...       0.05
freq.     827.51  E(vib)   ...       0.04
freq.     835.85  E(vib)   ...       0.04
freq.     851.64  E(vib)   ...       0.04
freq.     866.49  E(vib)   ...       0.04
freq.     886.43  E(vib)   ...       0.04
freq.     942.51  E(vib)   ...       0.03
freq.     981.74  E(vib)   ...       0.02
freq.    1000.73  E(vib)   ...       0.02
freq.    1048.45  E(vib)   ...       0.02
freq.    1067.85  E(vib)   ...       0.02
freq.    1088.12  E(vib)   ...       0.02
freq.    1113.42  E(vib)   ...       0.01
freq.    1133.23  E(vib)   ...       0.01
freq.    1138.50  E(vib)   ...       0.01
freq.    1190.32  E(vib)   ...       0.01
freq.    1194.25  E(vib)   ...       0.01
freq.    1202.12  E(vib)   ...       0.01
freq.    1230.34  E(vib)   ...       0.01
freq.    1237.84  E(vib)   ...       0.01
freq.    1270.55  E(vib)   ...       0.01
freq.    1271.12  E(vib)   ...       0.01
freq.    1290.96  E(vib)   ...       0.01
freq.    1316.00  E(vib)   ...       0.01
freq.    1324.76  E(vib)   ...       0.01
freq.    1370.01  E(vib)   ...       0.01
freq.    1380.23  E(vib)   ...       0.01
freq.    1414.77  E(vib)   ...       0.00
freq.    1422.90  E(vib)   ...       0.00
freq.    1443.21  E(vib)   ...       0.00
freq.    1479.88  E(vib)   ...       0.00
freq.    1503.43  E(vib)   ...       0.00
freq.    1554.59  E(vib)   ...       0.00
freq.    1579.64  E(vib)   ...       0.00
freq.    1626.51  E(vib)   ...       0.00
freq.    1634.34  E(vib)   ...       0.00
freq.    1643.58  E(vib)   ...       0.00
freq.    1667.01  E(vib)   ...       0.00
freq.    1720.27  E(vib)   ...       0.00
freq.    1739.35  E(vib)   ...       0.00
freq.    1757.71  E(vib)   ...       0.00
freq.    1766.19  E(vib)   ...       0.00
freq.    1806.54  E(vib)   ...       0.00
freq.    1817.75  E(vib)   ...       0.00
freq.    1864.78  E(vib)   ...       0.00
freq.    3553.56  E(vib)   ...       0.00
freq.    3665.21  E(vib)   ...       0.00
freq.    3679.91  E(vib)   ...       0.00
freq.    3687.15  E(vib)   ...       0.00
freq.    3706.01  E(vib)   ...       0.00
freq.    3709.04  E(vib)   ...       0.00
freq.    3731.35  E(vib)   ...       0.00
freq.    3747.32  E(vib)   ...       0.00

------------
INNER ENERGY
------------

The inner energy is: U= E(el) + E(ZPE) + E(vib) + E(rot) + E(trans)
    E(el)   - is the total energy from the electronic structure calculation
              = E(kin-el) + E(nuc-el) + E(el-el) + E(nuc-nuc)
    E(ZPE)  - the the zero temperature vibrational energy from the frequency calculation
    E(vib)  - the the finite temperature correction to E(ZPE) due to population
              of excited vibrational states
    E(rot)  - is the rotational thermal energy
    E(trans)- is the translational thermal energy

Summary of contributions to the inner energy U:
Electronic energy                ...  -2419.84836761 Eh
Zero point energy                ...      0.23236449 Eh     145.81 kcal/mol
Thermal vibrational correction   ...      0.01548039 Eh       9.71 kcal/mol
Thermal rotational correction    ...      0.00141627 Eh       0.89 kcal/mol
Thermal translational correction ...      0.00141627 Eh       0.89 kcal/mol
-----------------------------------------------------------------------
Total thermal energy                  -2419.59769018 Eh

Summary of corrections to the electronic energy:
(perhaps to be used in another calculation)
Total thermal correction                  0.01831293 Eh      11.49 kcal/mol
Non-thermal (ZPE) correction              0.23236449 Eh     145.81 kcal/mol
-----------------------------------------------------------------------
Total correction                          0.25067742 Eh     157.30 kcal/mol

--------
ENTHALPY
--------

The enthalpy is H = U + kB*T
                kB is Boltzmann's constant
Total free energy                 ...  -2419.59769018 Eh
Thermal Enthalpy correction       ...      0.00094421 Eh       0.59 kcal/mol
-----------------------------------------------------------------------
Total Enthalpy                    ...  -2419.59674597 Eh

Note: Only C1 symmetry has been detected, increase convergence thresholds
      if your molecule has a higher symmetry. Symmetry factor of 1.0 is
      used for the rotational entropy correction.

Note: Rotational entropy computed according to Herzberg
Infrared and Raman Spectra, Chapter V,1, Van Nostrand Reinhold, 1945
Point Group:  C1, Symmetry Number:   1
Rotational constants in cm-1:     0.007143     0.005321     0.003297

Vibrational entropy computed according to the QRRHO of S. Grimme

                             ****ORCA TERMINATED NORMALLY****
TOTAL RUN TIME: 0 days 0 hours 19 minutes 31 seconds 34 msec
