 Gaussian 16, Revision C.01,
 Gaussian 16:  ES64L-G16RevC.01  3-Jul-2019

 --------------------------------------
 #N CCSD/def2SVP FREQ Geom=Connectivity
 --------------------------------------

 -------
 GS_freq
 -------
 Symbolic Z-matrix:
 Charge =  0 Multiplicity = 1

                         Standard orientation:
 ---------------------------------------------------------------------
 Center     Atomic      Atomic             Coordinates (Angstroms)
 Number     Number       Type             X           Y           Z
 ---------------------------------------------------------------------
      1         15           0       -0.581550    0.595115   -0.111695
      2          9           0       -1.466993   -0.753555    0.027851
      3          1           0       -0.652786    0.963791    1.261486
      4         17           0        1.328175   -0.182854    0.009604
 ---------------------------------------------------------------------

 SCF Done:  E(RHF) =  -899.950967686     A.U. after   12 cycles
 E2 =    -0.4316748122D+00 EUMP2 =    -0.90038264249841D+03
 SCF Done:  E(RHF) =  -899.950953320     A.U. after    8 cycles
 E2 =    -0.4316938352D+00 EUMP2 =    -0.90038264715474D+03
 SCF Done:  E(RHF) =  -899.950981122     A.U. after    8 cycles
 E2 =    -0.4316558202D+00 EUMP2 =    -0.90038263694192D+03
 SCF Done:  E(RHF) =  -899.950943948     A.U. after    8 cycles
 E2 =    -0.4316953750D+00 EUMP2 =    -0.90038263932258D+03
 SCF Done:  E(RHF) =  -899.950990258     A.U. after    8 cycles
 E2 =    -0.4316542588D+00 EUMP2 =    -0.90038264451664D+03
 SCF Done:  E(RHF) =  -899.950983167     A.U. after    8 cycles
 E2 =    -0.4316623215D+00 EUMP2 =    -0.90038264548857D+03
 SCF Done:  E(RHF) =  -899.950951140     A.U. after    8 cycles
 E2 =    -0.4316873545D+00 EUMP2 =    -0.90038263849414D+03
 SCF Done:  E(RHF) =  -899.950986591     A.U. after    7 cycles
 E2 =    -0.4316546033D+00 EUMP2 =    -0.90038264119393D+03
 SCF Done:  E(RHF) =  -899.950948330     A.U. after    7 cycles
 E2 =    -0.4316950342D+00 EUMP2 =    -0.90038264336458D+03
 SCF Done:  E(RHF) =  -899.950993036     A.U. after    8 cycles
 E2 =    -0.4316492527D+00 EUMP2 =    -0.90038264228826D+03
 E2 =    -0.4317003622D+00 EUMP2 =    -0.90038264184820D+03
 E2 =    -0.4316770713D+00 EUMP2 =    -0.90038264202151D+03
 E2 =    -0.4316725818D+00 EUMP2 =    -0.90038264287798D+03
 E2 =    -0.4316759425D+00 EUMP2 =    -0.90038264292572D+03
 E2 =    -0.4316737039D+00 EUMP2 =    -0.90038264195506D+03
 SCF Done:  E(RHF) =  -899.950964888     A.U. after    7 cycles
 E2 =    -0.4316771236D+00 EUMP2 =    -0.90038264201138D+03
 SCF Done:  E(RHF) =  -899.950970306     A.U. after    7 cycles
 E2 =    -0.4316725197D+00 EUMP2 =    -0.90038264282545D+03
 SCF Done:  E(RHF) =  -899.950955012     A.U. after    7 cycles
 E2 =    -0.4316843657D+00 EUMP2 =    -0.90038263937817D+03
 SCF Done:  E(RHF) =  -899.950979598     A.U. after    7 cycles
 E2 =    -0.4316652790D+00 EUMP2 =    -0.90038264487740D+03
 SCF Done:  E(RHF) =  -899.950962800     A.U. after    8 cycles
 E2 =    -0.4316749111D+00 EUMP2 =    -0.90038263771153D+03
 SCF Done:  E(RHF) =  -899.950971991     A.U. after    8 cycles
 E2 =    -0.4316747348D+00 EUMP2 =    -0.90038264672552D+03
 SCF Done:  E(RHF) =  -899.950967701     A.U. after    7 cycles
 E2 =    -0.4316775114D+00 EUMP2 =    -0.90038264521231D+03
 SCF Done:  E(RHF) =  -899.950967522     A.U. after    7 cycles
 E2 =    -0.4316721238D+00 EUMP2 =    -0.90038263964596D+03
 SCF Done:  E(RHF) =  -899.950966609     A.U. after    7 cycles
 E2 =    -0.4316755456D+00 EUMP2 =    -0.90038264215498D+03
 SCF Done:  E(RHF) =  -899.950968705     A.U. after    7 cycles
 E2 =    -0.4316740852D+00 EUMP2 =    -0.90038264279011D+03

 Alpha  occ. eigenvalues -- -104.80344 -80.04314 -26.30401 -10.56780  -8.04250
 Alpha  occ. eigenvalues --   -8.03931  -8.03902  -7.60302  -5.50143  -5.50012
 Alpha  occ. eigenvalues --   -5.49777  -1.58908  -1.12107  -0.85922  -0.70798
 Alpha  occ. eigenvalues --   -0.69267  -0.66931  -0.55332  -0.49581  -0.47886
 Alpha  occ. eigenvalues --   -0.40271
 Alpha virt. eigenvalues --    0.11892   0.13016   0.19352   0.43035   0.49906
 Alpha virt. eigenvalues --    0.63175   0.66446   0.68561   0.71383   0.74078
 Alpha virt. eigenvalues --    0.79549   0.81918   0.92052   1.01929   1.02795

 Mulliken charges:
               1
     1  P    0.709579
     2  F   -0.407143
     3  H   -0.036037
     4  Cl  -0.266398
 Sum of Mulliken charges =  -0.00000

 Dipole moment (field-independent basis, Debye):
    X=             -0.3450    Y=              1.5735    Z=              0.4385  Tot=              1.6695
 Quadrupole moment (field-independent basis, Debye-Ang):
   XX=            -32.2430   YY=            -30.6205   ZZ=            -30.5794
   XY=             -1.6207   XZ=             -0.3976   YZ=              1.1437

                      1                      2                      3
                      A                      A                      A
 Frequencies --    270.7009               537.2492               860.6667
 Red. masses --     19.3304                26.2386                17.8776
 Frc consts  --      0.8346                 4.4621                 7.8024
 IR Inten    --      4.3817                90.6364               136.1020

                      4                      5                      6
                      A                      A                      A
 Frequencies --    918.6973              1004.5057              2424.8715
 Red. masses --      1.0815                 1.1041                 1.0408
 Frc consts  --      0.5378                 0.6564                 3.6058
 IR Inten    --     24.8949                26.7716               115.8387

 - Thermochemistry -
 -------------------
 Temperature   298.150 Kelvin.  Pressure   1.00000 Atm.
 Atom     1 has atomic number 15 and mass  30.97376

 Molecular mass:    85.94884 amu.
 Principal axes and moments of inertia in atomic units:
                           1         2         3
     Eigenvalues --    92.16958 412.10079 490.68916
           X            0.99989  -0.01229  -0.00823
           Y            0.01276   0.99810   0.06020
           Z            0.00747  -0.06030   0.99815
 This molecule is an asymmetric top.
 Rotational symmetry number  1.
 Rotational temperatures (Kelvin)      0.93972     0.21018     0.17651
 Rotational constants (GHZ):          19.58066     4.37937     3.67797
 Zero-point vibrational energy      35987.8 (Joules/Mol)
                                    8.60129 (Kcal/Mol)
 Warning -- explicit consideration of   2 degrees of freedom as
           vibrations may cause significant error
 Vibrational temperatures:    389.48   772.98  1238.31  1321.80  1445.26
          (Kelvin)           3488.85

 Zero-point correction=                           0.013707 (Hartree/Particle)
 Thermal correction to Energy=                    0.017345
 Thermal correction to Enthalpy=                  0.018289
 Thermal correction to Gibbs Free Energy=        -0.013189
 Sum of electronic and zero-point Energies=           -900.398539
 Sum of electronic and thermal Energies=              -900.394901
 Sum of electronic and thermal Enthalpies=            -900.393957
 Sum of electronic and thermal Free Energies=         -900.425435

                     E (Thermal)             CV                S
                      KCal/Mol        Cal/Mol-Kelvin    Cal/Mol-Kelvin
 Total                   10.884             10.262             66.251
 Electronic               0.000              0.000              0.000
 Translational            0.889              2.981             39.267
 Rotational               0.889              2.981             24.436
 Vibrational              9.107              4.300              2.548
 Vibration     1          0.674              1.727              1.592
 Vibration     2          0.892              1.168              0.571

 Optimization completed.
    -- Stationary point found.
 Normal termination of Gaussian 16 at Thu Jan 25 06:45:34 2024.
