 Gaussian 16, Revision C.01,
 Gaussian 16:  ES64L-G16RevC.01  3-Jul-2019

 ------------------------------------
 #N CCSD/cc-pVTZ SP Geom=Connectivity
 ------------------------------------

 ----------
 product_sp
 ----------
 Symbolic Z-matrix:
 Charge =  0 Multiplicity = 1

                         Standard orientation:
 ---------------------------------------------------------------------
 Center     Atomic      Atomic             Coordinates (Angstroms)
 Number     Number       Type             X           Y           Z
 ---------------------------------------------------------------------
      1          7           0       -0.533328    0.629626   -0.160710
      2         17           0        1.036449   -0.119719    0.010348
      3          9           0       -1.473894   -0.389160    0.025106
      4          1           0       -0.621303    1.130278    0.723099
 ---------------------------------------------------------------------

 SCF Done:  E(RHF) =  -613.917296931     A.U. after   13 cycles
 E2 =    -0.6554337311D+00 EUMP2 =    -0.61457273066256D+03

 The electronic state is 1-A.
 Alpha  occ. eigenvalues -- -104.88111 -26.33447 -15.73631 -10.60381  -8.07072
 Alpha  occ. eigenvalues --   -8.06822  -8.06798  -1.64424  -1.23516  -1.02694
 Alpha  occ. eigenvalues --   -0.76891  -0.72068  -0.70313  -0.60417  -0.53681
 Alpha  occ. eigenvalues --   -0.48804  -0.44574
 Alpha virt. eigenvalues --    0.10507   0.16101   0.23280   0.45168   0.47958
 Alpha virt. eigenvalues --    0.48289   0.51750   0.54867   0.57872   0.59872
 Alpha virt. eigenvalues --    0.61992   0.62711   0.67625   0.69357   0.76070

 Mulliken charges:
               1
     1  N    0.091218
     2  Cl  -0.021534
     3  F   -0.230114
     4  H    0.160431
 Sum of Mulliken charges =  -0.00000

 Dipole moment (field-independent basis, Debye):
    X=              0.4151    Y=              1.2390    Z=              1.3610  Tot=              1.8867
 Quadrupole moment (field-independent basis, Debye-Ang):
   XX=            -23.9912   YY=            -22.2776   ZZ=            -23.1916
   XY=             -1.6394   XZ=             -0.9183   YZ=              1.9204

 Normal termination of Gaussian 16 at Wed Jan 31 16:07:39 2024.
