 Gaussian 16, Revision C.01,
 Gaussian 16:  ES64L-G16RevC.01  3-Jul-2019

 --------------------------------------
 #N CCSD/cc-pVTZ FREQ Geom=Connectivity
 --------------------------------------

 -----
 HNFCl
 -----
 Symbolic Z-matrix:
 Charge =  0 Multiplicity = 1

                         Standard orientation:
 ---------------------------------------------------------------------
 Center     Atomic      Atomic             Coordinates (Angstroms)
 Number     Number       Type             X           Y           Z
 ---------------------------------------------------------------------
      1          7           0        0.533541    0.629911   -0.160694
      2         17           0       -1.036339   -0.119713    0.010331
      3          1           0        0.621240    1.130047    0.723427
      4          9           0        1.473527   -0.389367    0.025090
 ---------------------------------------------------------------------

 SCF Done:  E(RHF) =  -613.917290949     A.U. after   13 cycles
 E2 =    -0.6554392333D+00 EUMP2 =    -0.61457273018237D+03
 SCF Done:  E(RHF) =  -613.917300137     A.U. after    8 cycles
 E2 =    -0.6554217224D+00 EUMP2 =    -0.61457272185958D+03
 SCF Done:  E(RHF) =  -613.917280650     A.U. after    8 cycles
 E2 =    -0.6554569032D+00 EUMP2 =    -0.61457273755311D+03
 SCF Done:  E(RHF) =  -613.917251965     A.U. after    8 cycles
 E2 =    -0.6554809728D+00 EUMP2 =    -0.61457273293757D+03
 SCF Done:  E(RHF) =  -613.917328502     A.U. after    8 cycles
 E2 =    -0.6553976040D+00 EUMP2 =    -0.61457272610618D+03
 SCF Done:  E(RHF) =  -613.917334462     A.U. after    9 cycles
 E2 =    -0.6553890695D+00 EUMP2 =    -0.61457272353145D+03
 SCF Done:  E(RHF) =  -613.917245812     A.U. after    9 cycles
 E2 =    -0.6554895384D+00 EUMP2 =    -0.61457273534995D+03
 SCF Done:  E(RHF) =  -613.917317362     A.U. after    9 cycles
 E2 =    -0.6554148351D+00 EUMP2 =    -0.61457273219677D+03
 SCF Done:  E(RHF) =  -613.917263835     A.U. after    9 cycles
 E2 =    -0.6554636890D+00 EUMP2 =    -0.61457272752403D+03
 SCF Done:  E(RHF) =  -613.917301169     A.U. after    8 cycles
 E2 =    -0.6554309969D+00 EUMP2 =    -0.61457273216567D+03
 E2 =    -0.6554474988D+00 EUMP2 =    -0.61457272796889D+03
 E2 =    -0.6554461909D+00 EUMP2 =    -0.61457273085605D+03
 E2 =    -0.6554322912D+00 EUMP2 =    -0.61457272944944D+03
 E2 =    -0.6554375473D+00 EUMP2 =    -0.61457272913253D+03
 E2 =    -0.6554409815D+00 EUMP2 =    -0.61457273097021D+03
 SCF Done:  E(RHF) =  -613.917280854     A.U. after    8 cycles
 E2 =    -0.6554493991D+00 EUMP2 =    -0.61457273025316D+03
 SCF Done:  E(RHF) =  -613.917300482     A.U. after    8 cycles
 E2 =    -0.6554291146D+00 EUMP2 =    -0.61457272959617D+03
 SCF Done:  E(RHF) =  -613.917261776     A.U. after    7 cycles
 E2 =    -0.6554713784D+00 EUMP2 =    -0.61457273315478D+03
 SCF Done:  E(RHF) =  -613.917318892     A.U. after    7 cycles
 E2 =    -0.6554071257D+00 EUMP2 =    -0.61457272601758D+03
 SCF Done:  E(RHF) =  -613.917253290     A.U. after    8 cycles
 E2 =    -0.6554829772D+00 EUMP2 =    -0.61457273626669D+03
 SCF Done:  E(RHF) =  -613.917327900     A.U. after    8 cycles
 E2 =    -0.6553955396D+00 EUMP2 =    -0.61457272343951D+03
 SCF Done:  E(RHF) =  -613.917328309     A.U. after    8 cycles
 E2 =    -0.6553956838D+00 EUMP2 =    -0.61457272399233D+03
 SCF Done:  E(RHF) =  -613.917252842     A.U. after    8 cycles
 E2 =    -0.6554828333D+00 EUMP2 =    -0.61457273567554D+03
 SCF Done:  E(RHF) =  -613.917281353     A.U. after    7 cycles
 E2 =    -0.6554504479D+00 EUMP2 =    -0.61457273180075D+03
 SCF Done:  E(RHF) =  -613.917300395     A.U. after    7 cycles
 E2 =    -0.6554280675D+00 EUMP2 =    -0.61457272846206D+03

 Alpha  occ. eigenvalues -- -104.88107 -26.33451 -15.73633 -10.60377  -8.07067
 Alpha  occ. eigenvalues --   -8.06818  -8.06794  -1.64435  -1.23509  -1.02695
 Alpha  occ. eigenvalues --   -0.76899  -0.72075  -0.70318  -0.60412  -0.53676
 Alpha  occ. eigenvalues --   -0.48801  -0.44575
 Alpha virt. eigenvalues --    0.10505   0.16099   0.23287   0.45167   0.47961
 Alpha virt. eigenvalues --    0.48291   0.51751   0.54871   0.57870   0.59873
 Alpha virt. eigenvalues --    0.61993   0.62714   0.67621   0.69355   0.76064

 Mulliken charges:
               1
     1  N    0.034791
     2  Cl  -0.011926
     3  H    0.156653
     4  F   -0.179518
 Sum of Mulliken charges =  -0.00000

 Dipole moment (field-independent basis, Debye):
    X=             -0.3316    Y=              1.0449    Z=              1.3175  Tot=              1.7140
 Quadrupole moment (field-independent basis, Debye-Ang):
   XX=            -23.7199   YY=            -22.3435   ZZ=            -23.3111
   XY=              1.4080   XZ=              0.9098   YZ=              1.8234

                      1                      2                      3
                      A                      A                      A
 Frequencies --    389.5240               724.0781               973.9281
 Red. masses --     18.4729                13.7579                13.6873
 Frc consts  --      1.6514                 4.2498                 7.6493
 IR Inten    --      0.6913                26.6208                79.9538

                      4                      5                      6
                      A                      A                      A
 Frequencies --   1169.3798              1454.0949              3471.6499
 Red. masses --      1.1580                 1.0773                 1.0769
 Frc consts  --      0.9329                 1.3421                 7.6473
 IR Inten    --     38.0923                13.8311                11.6785

 - Thermochemistry -
 -------------------
 Temperature   298.150 Kelvin.  Pressure   1.00000 Atm.
 Atom     1 has atomic number  7 and mass  14.00307

 Molecular mass:    68.97816 amu.
 Principal axes and moments of inertia in atomic units:
                           1         2         3
     Eigenvalues --    39.51105 300.04792 333.70553
           X            0.99986   0.01520   0.00635
           Y           -0.01571   0.99582   0.08993
           Z           -0.00496  -0.09002   0.99593
 This molecule is an asymmetric top.
 Rotational symmetry number  1.
 Rotational temperatures (Kelvin)      2.19214     0.28867     0.25955
 Rotational constants (GHZ):          45.67687     6.01484     5.40818
 Zero-point vibrational energy      48943.1 (Joules/Mol)
                                   11.69769 (Kcal/Mol)
 Warning -- explicit consideration of   1 degrees of freedom as
           vibrations may cause significant error
 Vibrational temperatures:    560.44  1041.79  1401.27  1682.48  2092.12
          (Kelvin)           4994.93

 Zero-point correction=                           0.018641 (Hartree/Particle)
 Thermal correction to Energy=                    0.021963
 Thermal correction to Enthalpy=                  0.022907
 Thermal correction to Gibbs Free Energy=        -0.007004
 Sum of electronic and zero-point Energies=           -614.575234
 Sum of electronic and thermal Energies=              -614.571913
 Sum of electronic and thermal Enthalpies=            -614.570969
 Sum of electronic and thermal Free Energies=         -614.600880

                     E (Thermal)             CV                S
                      KCal/Mol        Cal/Mol-Kelvin    Cal/Mol-Kelvin
 Total                   13.782              8.958             62.953
 Electronic               0.000              0.000              0.000
 Translational            0.889              2.981             38.611
 Rotational               0.889              2.981             22.896
 Vibrational             12.004              2.997              1.446
 Vibration     1          0.757              1.493              1.002

 Optimization completed.
    -- Stationary point found.
 Normal termination of Gaussian 16 at Wed Jan 31 18:10:04 2024.
