 Gaussian 16, Revision C.01,
 Gaussian 16:  ES64L-G16RevC.01  3-Jul-2019

 ------------------------------------
 #N CCSD/cc-pVTZ SP Geom=Connectivity
 ------------------------------------

 -----------
 reactant_sp
 -----------
 Symbolic Z-matrix:
 Charge =  0 Multiplicity = 1

                         Standard orientation:
 ---------------------------------------------------------------------
 Center     Atomic      Atomic             Coordinates (Angstroms)
 Number     Number       Type             X           Y           Z
 ---------------------------------------------------------------------
      1          7           0        0.533541    0.629911   -0.160694
      2         17           0       -1.036339   -0.119713    0.010331
      3          1           0        0.621240    1.130047    0.723427
      4          9           0        1.473527   -0.389367    0.025090
 ---------------------------------------------------------------------

 SCF Done:  E(RHF) =  -613.917290949     A.U. after   13 cycles
 E2 =    -0.6554392333D+00 EUMP2 =    -0.61457273018237D+03

 The electronic state is 1-A.
 Alpha  occ. eigenvalues -- -104.88108 -26.33448 -15.73636 -10.60379  -8.07069
 Alpha  occ. eigenvalues --   -8.06820  -8.06795  -1.64428  -1.23511  -1.02696
 Alpha  occ. eigenvalues --   -0.76894  -0.72071  -0.70313  -0.60413  -0.53677
 Alpha  occ. eigenvalues --   -0.48802  -0.44579
 Alpha virt. eigenvalues --    0.10504   0.16098   0.23278   0.45164   0.47960
 Alpha virt. eigenvalues --    0.48291   0.51749   0.54869   0.57869   0.59871
 Alpha virt. eigenvalues --    0.61993   0.62714   0.67618   0.69355   0.76063

 Mulliken charges:
               1
     1  N    0.091284
     2  Cl  -0.021646
     3  H    0.160438
     4  F   -0.230077
 Sum of Mulliken charges =  -0.00000

 Dipole moment (field-independent basis, Debye):
    X=             -0.4141    Y=              1.2389    Z=              1.3613  Tot=              1.8867
 Quadrupole moment (field-independent basis, Debye-Ang):
   XX=            -23.9913   YY=            -22.2788   ZZ=            -23.1906
   XY=              1.6395   XZ=              0.9183   YZ=              1.9204

 Normal termination of Gaussian 16 at Wed Jan 31 15:32:25 2024.
