 Gaussian 16, Revision C.01,
 Gaussian 16:  ES64L-G16RevC.01  3-Jul-2019

 --------------------------------------
 #N CCSD/cc-pVTZ FREQ Geom=Connectivity
 --------------------------------------

 --
 ts
 --
 Symbolic Z-matrix:
 Charge =  0 Multiplicity = 1

                         Standard orientation:
 ---------------------------------------------------------------------
 Center     Atomic      Atomic             Coordinates (Angstroms)
 Number     Number       Type             X           Y           Z
 ---------------------------------------------------------------------
      1          7           0        0.479876    0.529735   -0.000031
      2         17           0       -1.043534   -0.115485    0.000003
      3          1           0        0.726904    1.494479    0.000096
      4          9           0        1.517116   -0.359930    0.000007
 ---------------------------------------------------------------------

 SCF Done:  E(RHF) =  -613.884697817     A.U. after   12 cycles
 E2 =    -0.6487126745D+00 EUMP2 =    -0.61453341049143D+03
 SCF Done:  E(RHF) =  -613.884719391     A.U. after    8 cycles
 E2 =    -0.6486802633D+00 EUMP2 =    -0.61453339965448D+03
 SCF Done:  E(RHF) =  -613.884674243     A.U. after    8 cycles
 E2 =    -0.6487453090D+00 EUMP2 =    -0.61453341955198D+03
 SCF Done:  E(RHF) =  -613.884677347     A.U. after    8 cycles
 E2 =    -0.6487300488D+00 EUMP2 =    -0.61453340739558D+03
 SCF Done:  E(RHF) =  -613.884715339     A.U. after    8 cycles
 E2 =    -0.6486954041D+00 EUMP2 =    -0.61453341074337D+03
 SCF Done:  E(RHF) =  -613.884698032     A.U. after    8 cycles
 E2 =    -0.6487127019D+00 EUMP2 =    -0.61453341073441D+03
 SCF Done:  E(RHF) =  -613.884698112     A.U. after    8 cycles
 E2 =    -0.6487127097D+00 EUMP2 =    -0.61453341082198D+03
 SCF Done:  E(RHF) =  -613.884716610     A.U. after    8 cycles
 E2 =    -0.6486980891D+00 EUMP2 =    -0.61453341469948D+03
 SCF Done:  E(RHF) =  -613.884677976     A.U. after    8 cycles
 E2 =    -0.6487273337D+00 EUMP2 =    -0.61453340530936D+03
 SCF Done:  E(RHF) =  -613.884703126     A.U. after    7 cycles
 E2 =    -0.6487096810D+00 EUMP2 =    -0.61453341280717D+03
 E2 =    -0.6487156969D+00 EUMP2 =    -0.61453340790585D+03
 E2 =    -0.6487126772D+00 EUMP2 =    -0.61453341052010D+03
 E2 =    -0.6487126767D+00 EUMP2 =    -0.61453341049705D+03
 E2 =    -0.6487152714D+00 EUMP2 =    -0.61453341047098D+03
 E2 =    -0.6487101283D+00 EUMP2 =    -0.61453341018505D+03
 SCF Done:  E(RHF) =  -613.884678493     A.U. after    7 cycles
 E2 =    -0.6487347955D+00 EUMP2 =    -0.61453341328883D+03
 SCF Done:  E(RHF) =  -613.884715385     A.U. after    7 cycles
 E2 =    -0.6486905771D+00 EUMP2 =    -0.61453340596195D+03
 SCF Done:  E(RHF) =  -613.884697881     A.U. after    7 cycles
 E2 =    -0.6487126846D+00 EUMP2 =    -0.61453341056592D+03
 SCF Done:  E(RHF) =  -613.884697847     A.U. after    7 cycles
 E2 =    -0.6487126795D+00 EUMP2 =    -0.61453341052653D+03
 SCF Done:  E(RHF) =  -613.884657872     A.U. after    7 cycles
 E2 =    -0.6487572789D+00 EUMP2 =    -0.61453341515127D+03
 SCF Done:  E(RHF) =  -613.884736798     A.U. after    7 cycles
 E2 =    -0.6486681338D+00 EUMP2 =    -0.61453340493196D+03
 SCF Done:  E(RHF) =  -613.884729398     A.U. after    7 cycles
 E2 =    -0.6486762808D+00 EUMP2 =    -0.61453340567834D+03
 SCF Done:  E(RHF) =  -613.884665431     A.U. after    7 cycles
 E2 =    -0.6487491341D+00 EUMP2 =    -0.61453341456494D+03
 SCF Done:  E(RHF) =  -613.884697834     A.U. after    7 cycles
 E2 =    -0.6487126969D+00 EUMP2 =    -0.61453341053098D+03
 SCF Done:  E(RHF) =  -613.884697811     A.U. after    7 cycles
 E2 =    -0.6487126938D+00 EUMP2 =    -0.61453341050504D+03

 Alpha  occ. eigenvalues -- -104.89116 -26.33499 -15.67491 -10.61222  -8.07950
 Alpha  occ. eigenvalues --   -8.07678  -8.07621  -1.64305  -1.24033  -1.01506
 Alpha  occ. eigenvalues --   -0.76972  -0.72388  -0.71288  -0.61191  -0.55063
 Alpha  occ. eigenvalues --   -0.49311  -0.38323
 Alpha virt. eigenvalues --    0.11324   0.18253   0.26747   0.45792   0.47120
 Alpha virt. eigenvalues --    0.48222   0.51320   0.58697   0.62331   0.62714
 Alpha virt. eigenvalues --    0.62831   0.63357   0.68441   0.70099   0.82712

 Mulliken charges:
               1
     1  N   -0.100904
     2  Cl   0.050111
     3  H    0.212069
     4  F   -0.161275
 Sum of Mulliken charges =  -0.00000

 Dipole moment (field-independent basis, Debye):
    X=             -0.3299    Y=              1.5777    Z=              0.0002  Tot=              1.6118
 Quadrupole moment (field-independent basis, Debye-Ang):
   XX=            -23.0210   YY=            -20.1370   ZZ=            -24.4114
   XY=              2.0853   XZ=              0.0002   YZ=              0.0002

 ******    1 imaginary frequencies (negative Signs) ******

                      1                      2                      3
                      A                      A                      A
 Frequencies --  -1070.1636               396.3667               867.1132
 Red. masses --      1.3700                16.7718                 7.6301
 Frc consts  --      0.9244                 1.5525                 3.3801
 IR Inten    --    189.5890                 4.8041                 0.8237

                      4                      5                      6
                      A                      A                      A
 Frequencies --   1143.0909              1370.4048              3798.5958
 Red. masses --     10.3350                 1.1251                 1.0817
 Frc consts  --      7.9565                 1.2449                 9.1957
 IR Inten    --     53.7116                 7.7996                88.4350

 - Thermochemistry -
 -------------------
 Temperature   298.150 Kelvin.  Pressure   1.00000 Atm.
 Atom     1 has atomic number  7 and mass  14.00307

 Molecular mass:    68.97816 amu.
 Principal axes and moments of inertia in atomic units:
                           1         2         3
     Eigenvalues --    32.22161 305.66043 337.88204
           X            0.99981   0.01975   0.00000
           Y           -0.01975   0.99981   0.00002
           Z           -0.00000  -0.00002   1.00000
 This molecule is an asymmetric top.
 Rotational symmetry number  1.
 Rotational temperatures (Kelvin)      2.68807     0.28337     0.25634
 Rotational constants (GHZ):          56.01027     5.90440     5.34134
    1 imaginary frequencies ignored.
 Zero-point vibrational energy      45312.0 (Joules/Mol)
                                   10.82982 (Kcal/Mol)
 Warning -- explicit consideration of   1 degrees of freedom as
           vibrations may cause significant error
 Vibrational temperatures:    570.28  1247.58  1644.65  1971.71  5465.33
          (Kelvin)

 Zero-point correction=                           0.017258 (Hartree/Particle)
 Thermal correction to Energy=                    0.020494
 Thermal correction to Enthalpy=                  0.021439
 Thermal correction to Gibbs Free Energy=        -0.008278
 Sum of electronic and zero-point Energies=           -614.537803
 Sum of electronic and thermal Energies=              -614.534567
 Sum of electronic and thermal Enthalpies=            -614.533623
 Sum of electronic and thermal Free Energies=         -614.563339

                     E (Thermal)             CV                S
                      KCal/Mol        Cal/Mol-Kelvin    Cal/Mol-Kelvin
 Total                   12.860              8.348             62.543
 Electronic               0.000              0.000              0.000
 Translational            0.889              2.981             38.611
 Rotational               0.889              2.981             22.725
 Vibrational             11.083              2.387              1.208
 Vibration     1          0.763              1.478              0.976

 Optimization completed.
    -- Stationary point found.
 Normal termination of Gaussian 16 at Wed Jan 31 18:34:13 2024.
