 Gaussian 16, Revision C.01,
 Gaussian 16:  ES64L-G16RevC.01  3-Jul-2019

 ------------------------------------
 #N CCSD/cc-pVTZ SP Geom=Connectivity
 ------------------------------------

 -----
 ts_sp
 -----
 Symbolic Z-matrix:
 Charge =  0 Multiplicity = 1

                         Standard orientation:
 ---------------------------------------------------------------------
 Center     Atomic      Atomic             Coordinates (Angstroms)
 Number     Number       Type             X           Y           Z
 ---------------------------------------------------------------------
      1          7           0        0.479876    0.529735   -0.000031
      2         17           0       -1.043534   -0.115485    0.000003
      3          1           0        0.726904    1.494479    0.000096
      4          9           0        1.517116   -0.359930    0.000007
 ---------------------------------------------------------------------

 SCF Done:  E(RHF) =  -613.884697817     A.U. after   12 cycles
 E2 =    -0.6487126745D+00 EUMP2 =    -0.61453341049143D+03

 The electronic state is 1-A.
 Alpha  occ. eigenvalues -- -104.89116 -26.33499 -15.67491 -10.61222  -8.07950
 Alpha  occ. eigenvalues --   -8.07678  -8.07621  -1.64305  -1.24033  -1.01506
 Alpha  occ. eigenvalues --   -0.76972  -0.72388  -0.71288  -0.61191  -0.55063
 Alpha  occ. eigenvalues --   -0.49311  -0.38323
 Alpha virt. eigenvalues --    0.11324   0.18253   0.26747   0.45792   0.47120
 Alpha virt. eigenvalues --    0.48222   0.51320   0.58697   0.62331   0.62714
 Alpha virt. eigenvalues --    0.62831   0.63357   0.68441   0.70099   0.82712

 Mulliken charges:
               1
     1  N   -0.055332
     2  Cl   0.046877
     3  H    0.213165
     4  F   -0.204710
 Sum of Mulliken charges =  -0.00000

 Dipole moment (field-independent basis, Debye):
    X=             -0.3993    Y=              1.7425    Z=              0.0003  Tot=              1.7877
 Quadrupole moment (field-independent basis, Debye-Ang):
   XX=            -23.2255   YY=            -19.9961   ZZ=            -24.3335
   XY=              2.3071   XZ=              0.0002   YZ=              0.0004

 Normal termination of Gaussian 16 at Wed Jan 31 16:06:25 2024.
